
 displacements (vx,vy,vz) for set MID and time  0.2000000E-02

       117  5.902850E-23  0.000000E+00 -2.563050E-10

 displacements (vx,vy,vz) for set MID and time  0.4000000E-02

       117  8.021425E-23  0.000000E+00  1.250085E-09

 displacements (vx,vy,vz) for set MID and time  0.6000000E-02

       117 -2.849239E-22  0.000000E+00 -2.585181E-09

 displacements (vx,vy,vz) for set MID and time  0.8000000E-02

       117 -1.337720E-21  0.000000E+00  1.576620E-08

 displacements (vx,vy,vz) for set MID and time  0.1000000E-01

       117 -1.209638E-21  0.000000E+00 -2.993798E-08

 displacements (vx,vy,vz) for set MID and time  0.1200000E-01

       117  5.563606E-21  0.000000E+00  4.141658E-07

 displacements (vx,vy,vz) for set MID and time  0.1400000E-01

       117  1.683057E-20  0.000000E+00  1.081637E-08

 displacements (vx,vy,vz) for set MID and time  0.1600000E-01

       117  1.534823E-20  0.000000E+00  4.040585E-06

 displacements (vx,vy,vz) for set MID and time  0.1800000E-01

       117  8.831327E-21  0.000000E+00  1.145638E-05

 displacements (vx,vy,vz) for set MID and time  0.2000000E-01

       117  2.656386E-21  0.000000E+00  1.811812E-05

 displacements (vx,vy,vz) for set MID and time  0.2200000E-01

       117  7.866096E-21  0.000000E+00  2.591006E-05

 displacements (vx,vy,vz) for set MID and time  0.2400000E-01

       117  7.974756E-21  0.000000E+00  3.311920E-05

 displacements (vx,vy,vz) for set MID and time  0.2600000E-01

       117  1.670996E-20  0.000000E+00  4.000870E-05

 displacements (vx,vy,vz) for set MID and time  0.2800000E-01

       117  3.575092E-20  0.000000E+00  4.686307E-05

 displacements (vx,vy,vz) for set MID and time  0.3000000E-01

       117  2.996735E-20  0.000000E+00  5.461055E-05
