
 displacements (vx,vy,vz) for set NALL and time  0.5019531E-06

         1 -1.280208E-10  2.151279E-10  0.000000E+00
         2  1.280208E-10  2.151279E-10  0.000000E+00
         3  1.280208E-10 -2.151279E-10  0.000000E+00
         4 -1.280208E-10 -2.151279E-10  0.000000E+00
         5  7.537115E-07  5.738770E-07  8.565567E-06
         6 -7.537115E-07  5.738770E-07  8.565567E-06
         7 -7.537115E-07 -5.738770E-07  8.565567E-06
         8  7.537115E-07 -5.738770E-07  8.565567E-06
         9 -3.648662E-12  6.423693E-11  0.000000E+00
        10 -1.755207E-21  2.758693E-10  0.000000E+00
        11  3.648662E-12  6.423693E-11  0.000000E+00
        12 -1.832200E-10 -2.132018E-10  0.000000E+00
        13  1.386066E-10  0.000000E+00  0.000000E+00
        14 -1.832200E-10  2.132018E-10  0.000000E+00
        15  3.648662E-12 -6.423693E-11  0.000000E+00
        16 -1.757075E-21 -2.758693E-10  0.000000E+00
        17 -3.648662E-12 -6.423693E-11  0.000000E+00
        18  1.832200E-10  2.132018E-10  0.000000E+00
        19 -1.386066E-10  8.028568E-24  0.000000E+00
        20  1.832200E-10 -2.132018E-10  0.000000E+00
        21  3.919475E-07  6.142575E-07  8.941580E-06
        22 -1.167023E-17  6.050111E-07  8.935496E-06
        23 -3.919475E-07  6.142575E-07  8.941580E-06
        24 -7.246519E-07  3.556891E-07  9.529234E-06
        25 -8.290547E-07  4.000230E-18  9.511973E-06
        26 -7.246519E-07 -3.556891E-07  9.529234E-06
        27 -3.919475E-07 -6.142575E-07  8.941580E-06
        28 -9.665037E-18 -6.050111E-07  8.935496E-06
        29  3.919475E-07 -6.142575E-07  8.941580E-06
        30  7.246519E-07 -3.556891E-07  9.529234E-06
        31  8.290547E-07  2.196926E-17  9.511973E-06
        32  7.246519E-07  3.556891E-07  9.529234E-06
        33 -2.140591E-10  3.493420E-11 -3.682149E-11
        34 -2.664326E-10 -2.068091E-10 -1.439140E-10
        35  7.124739E-10 -6.031265E-11 -3.807550E-11
        36  6.359589E-10 -1.174216E-10  7.294036E-10
        37 -9.737481E-10 -1.405009E-10  7.945478E-11
        38 -1.012885E-09  1.615969E-10 -7.618766E-10
        39 -7.723572E-10  3.155943E-09  1.744397E-09
        40 -1.895642E-09  6.241820E-09  1.916867E-09
        41 -7.922484E-09  5.042997E-09  3.208732E-08
        42 -3.168525E-08  2.356417E-08  9.733613E-08
        43 -7.161650E-08  1.570634E-07  2.609934E-07
        44 -1.555380E-07  2.052031E-07  6.435307E-07
        45 -4.247634E-07  5.633106E-07  1.861910E-06
        46 -4.978842E-07  9.019062E-07  3.461954E-06
        47 -9.639978E-07  1.418727E-06  6.018643E-06
        48  9.639978E-07  1.418727E-06  6.018643E-06
        49  4.978842E-07  9.019062E-07  3.461954E-06
        50  4.247634E-07  5.633106E-07  1.861910E-06
        51  1.555380E-07  2.052031E-07  6.435307E-07
        52  7.161650E-08  1.570634E-07  2.609934E-07
        53  3.168525E-08  2.356417E-08  9.733613E-08
        54  7.922484E-09  5.042997E-09  3.208732E-08
        55  1.895642E-09  6.241820E-09  1.916867E-09
        56  7.723572E-10  3.155943E-09  1.744397E-09
        57  1.012885E-09  1.615969E-10 -7.618766E-10
        58  9.737481E-10 -1.405009E-10  7.945478E-11
        59 -6.359589E-10 -1.174216E-10  7.294036E-10
        60 -7.124739E-10 -6.031265E-11 -3.807550E-11
        61  2.664326E-10 -2.068091E-10 -1.439140E-10
        62  2.140591E-10  3.493420E-11 -3.682149E-11
        63 -2.140591E-10 -3.493420E-11 -3.682149E-11
        64 -2.664326E-10  2.068091E-10 -1.439140E-10
        65  7.124739E-10  6.031265E-11 -3.807550E-11
        66  6.359589E-10  1.174216E-10  7.294036E-10
        67 -9.737481E-10  1.405009E-10  7.945478E-11
        68 -1.012885E-09 -1.615969E-10 -7.618766E-10
        69 -7.723572E-10 -3.155943E-09  1.744397E-09
        70 -1.895642E-09 -6.241820E-09  1.916867E-09
        71 -7.922484E-09 -5.042997E-09  3.208732E-08
        72 -3.168525E-08 -2.356417E-08  9.733613E-08
        73 -7.161650E-08 -1.570634E-07  2.609934E-07
        74 -1.555380E-07 -2.052031E-07  6.435307E-07
        75 -4.247634E-07 -5.633106E-07  1.861910E-06
        76 -4.978842E-07 -9.019062E-07  3.461954E-06
        77 -9.639978E-07 -1.418727E-06  6.018643E-06
        78  2.140591E-10 -3.493420E-11 -3.682149E-11
        79  2.664326E-10  2.068091E-10 -1.439140E-10
        80 -7.124739E-10  6.031265E-11 -3.807550E-11
        81 -6.359589E-10  1.174216E-10  7.294036E-10
        82  9.737481E-10  1.405009E-10  7.945478E-11
        83  1.012885E-09 -1.615969E-10 -7.618766E-10
        84  7.723572E-10 -3.155943E-09  1.744397E-09
        85  1.895642E-09 -6.241820E-09  1.916867E-09
        86  7.922484E-09 -5.042997E-09  3.208732E-08
        87  3.168525E-08 -2.356417E-08  9.733613E-08
        88  7.161650E-08 -1.570634E-07  2.609934E-07
        89  1.555380E-07 -2.052031E-07  6.435307E-07
        90  4.247634E-07 -5.633106E-07  1.861910E-06
        91  4.978842E-07 -9.019062E-07  3.461954E-06
        92  9.639978E-07 -1.418727E-06  6.018643E-06
        93  6.540594E-23 -2.621114E-10  0.000000E+00
        94 -7.680374E-11 -5.454235E-24  0.000000E+00
        95  0.000000E+00  0.000000E+00  0.000000E+00
        96  7.680374E-11 -4.543738E-24  0.000000E+00
        97  6.636240E-23  2.621114E-10  0.000000E+00
        98  4.779391E-18  2.873981E-07  9.843382E-06
        99  4.395796E-07  1.152013E-17  9.900086E-06
       100 -1.372203E-17 -2.264347E-17  9.979857E-06
       101 -4.395796E-07 -5.710422E-19  9.900086E-06
       102 -7.061269E-18 -2.873981E-07  9.843382E-06
       103 -1.340316E-21  5.261476E-11 -1.584735E-11
       104 -1.701870E-11 -7.603524E-11 -1.064197E-10
       105 -5.278619E-21 -2.489875E-10 -2.591376E-11
       106  1.701870E-11 -7.603524E-11 -1.064197E-10
       107 -5.129952E-21 -1.357341E-10 -2.752692E-10
       108  9.906958E-11  3.971929E-11  1.277721E-10
       109 -4.704484E-19 -3.853301E-10  3.477619E-10
       110 -9.906958E-11  3.971929E-11  1.277721E-10
       111  2.012648E-18  2.131988E-10  8.264116E-10
       112 -5.400314E-11  1.296998E-09  8.380935E-10
       113  2.292039E-18  1.716298E-09  1.505328E-10
       114  5.400314E-11  1.296998E-09  8.380935E-10
       115  1.408706E-18  1.234108E-09  2.618968E-10
       116  9.677832E-10 -9.756769E-10  5.413081E-09
       117  5.500212E-18  1.557632E-09 -2.324058E-10
       118 -9.677832E-10 -9.756769E-10  5.413081E-09
       119  2.867064E-18  6.202026E-09  2.835695E-08
       120  1.513795E-08  3.824995E-08  1.007124E-07
       121 -2.142541E-18  3.253904E-08  8.912655E-08
       122 -1.513795E-08  3.824995E-08  1.007124E-07
       123 -9.177526E-18  1.187129E-07  2.437695E-07
       124  7.308811E-08  2.429590E-07  7.157821E-07
       125 -1.385717E-19  1.784659E-07  5.490605E-07
       126 -7.308811E-08  2.429590E-07  7.157821E-07
       127 -1.726341E-18  5.429000E-07  1.738322E-06
       128  2.509406E-07  8.561095E-07  3.477335E-06
       129  2.367566E-18  8.225154E-07  3.289048E-06
       130 -2.509406E-07  8.561095E-07  3.477335E-06
       131  9.426169E-19  1.404982E-06  5.999475E-06
       132 -8.188118E-11 -5.538224E-25 -1.211979E-10
       133  1.584400E-10  1.199617E-10  6.016947E-11
       134  1.059313E-11  2.572492E-23 -6.187292E-10
       135  1.584400E-10 -1.199617E-10  6.016947E-11
       136  1.906548E-10 -2.295474E-23  7.902940E-10
       137  5.399969E-11  5.136972E-10  3.505318E-11
       138 -3.926495E-10 -1.353646E-21  1.607729E-09
       139  5.399969E-11 -5.136972E-10  3.505318E-11
       140 -2.113502E-10  2.671282E-21 -2.213380E-09
       141 -1.262450E-09 -1.604845E-09 -4.819998E-10
       142  2.452756E-10 -2.797766E-19 -6.247382E-10
       143 -1.262450E-09  1.604845E-09 -4.819998E-10
       144 -7.043472E-10  3.082923E-19  4.272319E-09
       145 -2.022456E-09  1.697512E-09  1.592424E-08
       146 -1.742606E-09 -3.514110E-19 -2.188569E-09
       147 -2.022456E-09 -1.697512E-09  1.592424E-08
       148 -4.915904E-09 -9.546137E-20  2.677728E-08
       149 -3.988429E-08  1.997005E-08  8.728648E-08
       150 -2.988517E-08  6.125325E-18  8.601131E-08
       151 -3.988429E-08 -1.997005E-08  8.728648E-08
       152 -6.688625E-08  8.959704E-18  2.298309E-07
       153 -2.181727E-07  6.055691E-08  8.442115E-07
       154 -1.584164E-07 -1.438269E-18  5.454146E-07
       155 -2.181727E-07 -6.055691E-08  8.442115E-07
       156 -3.630700E-07  5.830447E-18  1.596169E-06
       157 -5.562014E-07  4.693006E-07  3.687688E-06
       158 -5.097806E-07  4.279599E-18  3.137990E-06
       159 -5.562014E-07 -4.693006E-07  3.687688E-06
       160 -1.245864E-06  7.678545E-18  6.237145E-06
       161 -1.338423E-21 -5.261476E-11 -1.584735E-11
       162  1.701870E-11  7.603524E-11 -1.064197E-10
       163 -5.261253E-21  2.489875E-10 -2.591376E-11
       164 -1.701870E-11  7.603524E-11 -1.064197E-10
       165 -5.199315E-21  1.357341E-10 -2.752692E-10
       166 -9.906958E-11 -3.971929E-11  1.277721E-10
       167 -4.735684E-19  3.853301E-10  3.477619E-10
       168  9.906958E-11 -3.971929E-11  1.277721E-10
       169  2.017800E-18 -2.131988E-10  8.264116E-10
       170  5.400314E-11 -1.296998E-09  8.380935E-10
       171  1.054438E-18 -1.716298E-09  1.505328E-10
       172 -5.400314E-11 -1.296998E-09  8.380935E-10
       173  2.757310E-18 -1.234108E-09  2.618968E-10
       174 -9.677832E-10  9.756769E-10  5.413081E-09
       175  4.095390E-18 -1.557632E-09 -2.324058E-10
       176  9.677832E-10  9.756769E-10  5.413081E-09
       177  2.800199E-18 -6.202026E-09  2.835695E-08
       178 -1.513795E-08 -3.824995E-08  1.007124E-07
       179 -7.965721E-18 -3.253904E-08  8.912655E-08
       180  1.513795E-08 -3.824995E-08  1.007124E-07
       181 -2.809446E-19 -1.187129E-07  2.437695E-07
       182 -7.308811E-08 -2.429590E-07  7.157821E-07
       183 -2.205945E-18 -1.784659E-07  5.490605E-07
       184  7.308811E-08 -2.429590E-07  7.157821E-07
       185 -2.977547E-18 -5.429000E-07  1.738322E-06
       186 -2.509406E-07 -8.561095E-07  3.477335E-06
       187  8.785907E-18 -8.225154E-07  3.289048E-06
       188  2.509406E-07 -8.561095E-07  3.477335E-06
       189 -1.379443E-17 -1.404982E-06  5.999475E-06
       190  8.188118E-11 -2.150005E-24 -1.211979E-10
       191 -1.584400E-10 -1.199617E-10  6.016947E-11
       192 -1.059313E-11 -5.358464E-23 -6.187292E-10
       193 -1.584400E-10  1.199617E-10  6.016947E-11
       194 -1.906548E-10  5.220805E-23  7.902940E-10
       195 -5.399969E-11 -5.136972E-10  3.505318E-11
       196  3.926495E-10 -6.016105E-22  1.607729E-09
       197 -5.399969E-11  5.136972E-10  3.505318E-11
       198  2.113502E-10 -2.886489E-21 -2.213380E-09
       199  1.262450E-09  1.604845E-09 -4.819998E-10
       200 -2.452756E-10  6.434874E-19 -6.247382E-10
       201  1.262450E-09 -1.604845E-09 -4.819998E-10
       202  7.043472E-10 -5.290550E-19  4.272319E-09
       203  2.022456E-09 -1.697512E-09  1.592424E-08
       204  1.742606E-09  9.035786E-19 -2.188569E-09
       205  2.022456E-09  1.697512E-09  1.592424E-08
       206  4.915904E-09 -1.388768E-19  2.677728E-08
       207  3.988429E-08 -1.997005E-08  8.728648E-08
       208  2.988517E-08 -1.623384E-18  8.601131E-08
       209  3.988429E-08  1.997005E-08  8.728648E-08
       210  6.688625E-08  2.385115E-18  2.298309E-07
       211  2.181727E-07 -6.055691E-08  8.442115E-07
       212  1.584164E-07  5.505805E-18  5.454146E-07
       213  2.181727E-07  6.055691E-08  8.442115E-07
       214  3.630700E-07 -5.181387E-18  1.596169E-06
       215  5.562014E-07 -4.693006E-07  3.687688E-06
       216  5.097806E-07 -7.885690E-18  3.137990E-06
       217  5.562014E-07  4.693006E-07  3.687688E-06
       218  1.245864E-06  7.494928E-18  6.237145E-06
       219  1.952284E-21 -1.743296E-24 -1.717470E-11
       220  4.403167E-21  1.996792E-10 -2.612860E-11
       221  1.589191E-10  3.456614E-23  3.419541E-10
       222 -1.224419E-20 -2.061530E-23 -4.785646E-10
       223 -1.589191E-10 -1.169804E-23  3.419541E-10
       224  4.398764E-21 -1.996792E-10 -2.612860E-11
       225  1.876490E-20  1.303996E-23  4.908827E-10
       226  3.320500E-19  5.176959E-10  5.195455E-11
       227 -1.757941E-10  9.583993E-22 -8.573438E-10
       228 -8.580960E-20 -9.925074E-22  1.164246E-09
       229  1.757941E-10  7.513201E-22 -8.573438E-10
       230  3.328910E-19 -5.176959E-10  5.195455E-11
       231  1.539596E-19  1.425105E-21 -1.515868E-09
       232  3.334975E-19 -2.259368E-09  9.782793E-11
       233 -3.331448E-10 -2.631247E-19  1.452702E-09
       234 -2.529824E-19  2.519553E-19  2.591637E-10
       235  3.331448E-10 -1.060436E-19  1.452702E-09
       236  5.071938E-19  2.259368E-09  9.782793E-11
       237 -1.443295E-19 -5.488920E-19  2.818698E-09
       238  4.412055E-18  3.411844E-09  1.174220E-08
       239  2.114033E-09 -2.459652E-19  4.995064E-09
       240  1.800727E-18 -1.207472E-18 -3.327731E-09
       241 -2.114033E-09 -1.093329E-18  4.995064E-09
       242  3.787589E-18 -3.411844E-09  1.174220E-08
       243 -2.098365E-18 -1.564811E-18  2.368074E-08
       244 -5.250180E-18  2.106174E-08  8.213149E-08
       245  1.527537E-08  4.370186E-19  8.382539E-08
       246  1.127611E-18 -4.665261E-18  8.061023E-08
       247 -1.527537E-08  1.839580E-18  8.382539E-08
       248 -2.889267E-18 -2.106174E-08  8.213149E-08
       249 -2.742187E-18  2.723195E-18  2.055435E-07
       250 -1.246023E-18  6.935551E-08  7.146912E-07
       251  6.777015E-08 -6.564843E-19  5.951320E-07
       252  1.214413E-19  4.055790E-18  4.616066E-07
       253 -6.777015E-08 -7.761843E-20  5.951320E-07
       254  5.993966E-19 -6.935551E-08  7.146912E-07
       255  4.026931E-18 -5.145688E-18  1.483663E-06
       256  3.317096E-18  4.329017E-07  3.513875E-06
       257  2.616888E-07 -4.969162E-18  3.102682E-06
       258  8.206969E-19  6.525459E-18  2.881036E-06
       259 -2.616888E-07 -9.216816E-19  3.102682E-06
       260  3.811588E-18 -4.329017E-07  3.513875E-06
       261  1.040661E-17 -1.015515E-17  6.243717E-06

 stresses (elem, integ.pnt.,sxx,syy,szz,sxy,sxz,syz) for set EALL and time  0.5019531E-06

         1   1 -1.256634E-04 -2.104152E-04 -3.687653E-05  1.625164E-06  2.094801E-05  5.805023E-05
         1   2 -1.923947E-04 -2.667897E-04 -8.273153E-05  4.338256E-05 -1.894258E-05  5.731580E-05
         1   3  1.002472E-04  2.122718E-04  2.215342E-04 -5.284880E-05  7.044900E-05  2.325572E-05
         1   4  3.938631E-05  1.965845E-04  2.028320E-04 -4.534766E-06 -4.602232E-05  3.784104E-05
         1   5 -9.169386E-05  6.232280E-05 -5.634355E-06 -3.653876E-06  1.254024E-05  1.139081E-04
         1   6  7.258813E-05  1.623781E-04  7.752143E-05 -1.552594E-05 -6.938901E-05  9.468717E-05
         1   7  4.568239E-05 -6.168648E-05 -3.200699E-05  4.253930E-05  1.746821E-04 -2.759186E-05
         1   8 -1.751682E-04 -1.814990E-04 -1.404339E-04  2.011192E-05 -2.092272E-04  5.262188E-06
         2   1 -1.923947E-04 -2.667897E-04 -8.273153E-05 -4.338256E-05  1.894258E-05  5.731580E-05
         2   2 -1.256634E-04 -2.104152E-04 -3.687653E-05 -1.625164E-06 -2.094801E-05  5.805023E-05
         2   3  3.938631E-05  1.965845E-04  2.028320E-04  4.534766E-06  4.602232E-05  3.784104E-05
         2   4  1.002472E-04  2.122718E-04  2.215342E-04  5.284880E-05 -7.044900E-05  2.325572E-05
         2   5  7.258813E-05  1.623781E-04  7.752143E-05  1.552594E-05  6.938901E-05  9.468717E-05
         2   6 -9.169386E-05  6.232280E-05 -5.634355E-06  3.653876E-06 -1.254024E-05  1.139081E-04
         2   7 -1.751682E-04 -1.814990E-04 -1.404339E-04 -2.011192E-05  2.092272E-04  5.262188E-06
         2   8  4.568239E-05 -6.168648E-05 -3.200699E-05 -4.253930E-05 -1.746821E-04 -2.759186E-05
         3   1  1.002472E-04  2.122718E-04  2.215342E-04  5.284880E-05  7.044900E-05 -2.325572E-05
         3   2  3.938631E-05  1.965845E-04  2.028320E-04  4.534766E-06 -4.602232E-05 -3.784104E-05
         3   3 -1.256634E-04 -2.104152E-04 -3.687653E-05 -1.625164E-06  2.094801E-05 -5.805023E-05
         3   4 -1.923947E-04 -2.667897E-04 -8.273153E-05 -4.338256E-05 -1.894258E-05 -5.731580E-05
         3   5  4.568239E-05 -6.168648E-05 -3.200699E-05 -4.253930E-05  1.746821E-04  2.759186E-05
         3   6 -1.751682E-04 -1.814990E-04 -1.404339E-04 -2.011192E-05 -2.092272E-04 -5.262188E-06
         3   7 -9.169386E-05  6.232280E-05 -5.634355E-06  3.653876E-06  1.254024E-05 -1.139081E-04
         3   8  7.258813E-05  1.623781E-04  7.752143E-05  1.552594E-05 -6.938901E-05 -9.468717E-05
         4   1  3.938631E-05  1.965845E-04  2.028320E-04 -4.534766E-06  4.602232E-05 -3.784104E-05
         4   2  1.002472E-04  2.122718E-04  2.215342E-04 -5.284880E-05 -7.044900E-05 -2.325572E-05
         4   3 -1.923947E-04 -2.667897E-04 -8.273153E-05  4.338256E-05  1.894258E-05 -5.731580E-05
         4   4 -1.256634E-04 -2.104152E-04 -3.687653E-05  1.625164E-06 -2.094801E-05 -5.805023E-05
         4   5 -1.751682E-04 -1.814990E-04 -1.404339E-04  2.011192E-05  2.092272E-04 -5.262188E-06
         4   6  4.568239E-05 -6.168648E-05 -3.200699E-05  4.253930E-05 -1.746821E-04  2.759186E-05
         4   7  7.258813E-05  1.623781E-04  7.752143E-05 -1.552594E-05  6.938901E-05 -9.468717E-05
         4   8 -9.169386E-05  6.232280E-05 -5.634355E-06 -3.653876E-06 -1.254024E-05 -1.139081E-04
         5   1  1.980794E-04  2.404498E-04 -9.301865E-05  3.286270E-05 -1.111859E-04  1.160508E-04
         5   2  2.347652E-04  2.932360E-04 -1.087977E-04 -4.942141E-05 -1.440479E-05  1.028249E-04
         5   3  5.427105E-05 -2.388288E-04 -1.669387E-04  8.023746E-05 -1.576896E-05  5.127336E-05
         5   4 -8.566181E-05 -3.550877E-04 -2.991482E-04  1.529376E-05 -1.062769E-04  6.189263E-05
         5   5  7.662361E-04  6.776352E-04  4.244573E-04  1.005887E-04 -1.819374E-04 -1.561771E-04
         5   6  3.529701E-04  5.906419E-04  2.957829E-04 -1.052150E-04  2.253797E-04 -1.324853E-04
         5   7 -4.572548E-04 -6.712281E-04 -5.801317E-04  6.262309E-05 -4.571503E-04  2.177707E-04
         5   8 -8.780997E-05 -5.292051E-04 -4.043174E-04 -3.251576E-05  4.636385E-04  1.682917E-04
         6   1  2.347652E-04  2.932360E-04 -1.087977E-04  4.942141E-05  1.440479E-05  1.028249E-04
         6   2  1.980794E-04  2.404498E-04 -9.301865E-05 -3.286270E-05  1.111859E-04  1.160508E-04
         6   3 -8.566181E-05 -3.550877E-04 -2.991482E-04 -1.529376E-05  1.062769E-04  6.189263E-05
         6   4  5.427105E-05 -2.388288E-04 -1.669387E-04 -8.023746E-05  1.576896E-05  5.127336E-05
         6   5  3.529701E-04  5.906419E-04  2.957829E-04  1.052150E-04 -2.253797E-04 -1.324853E-04
         6   6  7.662361E-04  6.776352E-04  4.244573E-04 -1.005887E-04  1.819374E-04 -1.561771E-04
         6   7 -8.780997E-05 -5.292051E-04 -4.043174E-04  3.251576E-05 -4.636385E-04  1.682917E-04
         6   8 -4.572547E-04 -6.712280E-04 -5.801317E-04 -6.262309E-05  4.571503E-04  2.177707E-04
         7   1  5.427105E-05 -2.388288E-04 -1.669387E-04 -8.023746E-05 -1.576896E-05 -5.127336E-05
         7   2 -8.566181E-05 -3.550877E-04 -2.991482E-04 -1.529376E-05 -1.062769E-04 -6.189263E-05
         7   3  1.980794E-04  2.404498E-04 -9.301865E-05 -3.286270E-05 -1.111859E-04 -1.160508E-04
         7   4  2.347652E-04  2.932360E-04 -1.087977E-04  4.942141E-05 -1.440479E-05 -1.028249E-04
         7   5 -4.572548E-04 -6.712281E-04 -5.801317E-04 -6.262309E-05 -4.571503E-04 -2.177707E-04
         7   6 -8.780997E-05 -5.292051E-04 -4.043174E-04  3.251576E-05  4.636385E-04 -1.682917E-04
         7   7  7.662361E-04  6.776352E-04  4.244573E-04 -1.005887E-04 -1.819374E-04  1.561771E-04
         7   8  3.529701E-04  5.906419E-04  2.957829E-04  1.052150E-04  2.253797E-04  1.324853E-04
         8   1 -8.566181E-05 -3.550877E-04 -2.991482E-04  1.529376E-05  1.062769E-04 -6.189263E-05
         8   2  5.427105E-05 -2.388288E-04 -1.669387E-04  8.023746E-05  1.576896E-05 -5.127336E-05
         8   3  2.347652E-04  2.932360E-04 -1.087977E-04 -4.942141E-05  1.440479E-05 -1.028249E-04
         8   4  1.980794E-04  2.404498E-04 -9.301865E-05  3.286270E-05  1.111859E-04 -1.160508E-04
         8   5 -8.780997E-05 -5.292051E-04 -4.043174E-04 -3.251576E-05 -4.636385E-04 -1.682917E-04
         8   6 -4.572547E-04 -6.712280E-04 -5.801317E-04  6.262309E-05  4.571503E-04 -2.177707E-04
         8   7  3.529701E-04  5.906419E-04  2.957829E-04 -1.052150E-04 -2.253797E-04  1.324853E-04
         8   8  7.662361E-04  6.776352E-04  4.244573E-04  1.005887E-04  1.819374E-04  1.561771E-04
         9   1 -1.123414E-04 -2.486249E-05 -6.827828E-05  7.643294E-05  8.961239E-05 -5.451459E-04
         9   2 -2.602049E-04 -7.780856E-05  1.033728E-04 -1.445728E-04  2.131075E-04 -5.161313E-04
         9   3 -9.988768E-04 -7.079443E-04 -1.224719E-03 -7.600848E-05 -3.083644E-04 -1.601698E-04
         9   4 -2.354249E-04 -2.107774E-04 -6.129959E-04 -9.687761E-05  4.947766E-04 -2.401643E-04
         9   5 -1.627837E-03 -1.736594E-03 -6.537430E-04  1.511853E-04  4.143050E-04 -2.581897E-04
         9   6 -1.113520E-03 -2.153253E-03 -6.617272E-04 -7.771082E-05 -2.037835E-04 -2.407613E-04
         9   7  4.330663E-04  1.485667E-03  1.814474E-03 -2.914050E-04  4.171589E-04 -2.622414E-04
         9   8  1.258365E-03  2.105953E-03  2.213891E-03 -1.690477E-04 -1.798676E-04 -2.658604E-04
        10   1 -2.602049E-04 -7.780856E-05  1.033728E-04  1.445728E-04 -2.131075E-04 -5.161313E-04
        10   2 -1.123414E-04 -2.486251E-05 -6.827832E-05 -7.643294E-05 -8.961239E-05 -5.451459E-04
        10   3 -2.354249E-04 -2.107774E-04 -6.129959E-04  9.687761E-05 -4.947766E-04 -2.401643E-04
        10   4 -9.988768E-04 -7.079443E-04 -1.224719E-03  7.600848E-05  3.083644E-04 -1.601698E-04
        10   5 -1.113520E-03 -2.153253E-03 -6.617272E-04  7.771082E-05  2.037835E-04 -2.407613E-04
        10   6 -1.627837E-03 -1.736594E-03 -6.537430E-04 -1.511853E-04 -4.143050E-04 -2.581897E-04
        10   7  1.258365E-03  2.105953E-03  2.213891E-03  1.690477E-04  1.798676E-04 -2.658604E-04
        10   8  4.330663E-04  1.485667E-03  1.814474E-03  2.914050E-04 -4.171589E-04 -2.622414E-04
        11   1 -9.988768E-04 -7.079443E-04 -1.224719E-03  7.600848E-05 -3.083644E-04  1.601698E-04
        11   2 -2.354249E-04 -2.107774E-04 -6.129959E-04  9.687761E-05  4.947766E-04  2.401643E-04
        11   3 -1.123414E-04 -2.486251E-05 -6.827832E-05 -7.643294E-05  8.961239E-05  5.451459E-04
        11   4 -2.602049E-04 -7.780856E-05  1.033728E-04  1.445728E-04  2.131075E-04  5.161313E-04
        11   5  4.330663E-04  1.485667E-03  1.814474E-03  2.914050E-04  4.171589E-04  2.622414E-04
        11   6  1.258365E-03  2.105953E-03  2.213891E-03  1.690477E-04 -1.798676E-04  2.658604E-04
        11   7 -1.627837E-03 -1.736594E-03 -6.537430E-04 -1.511853E-04  4.143050E-04  2.581897E-04
        11   8 -1.113520E-03 -2.153253E-03 -6.617272E-04  7.771082E-05 -2.037835E-04  2.407613E-04
        12   1 -2.354249E-04 -2.107774E-04 -6.129959E-04 -9.687761E-05 -4.947766E-04  2.401643E-04
        12   2 -9.988768E-04 -7.079443E-04 -1.224719E-03 -7.600848E-05  3.083644E-04  1.601698E-04
        12   3 -2.602049E-04 -7.780856E-05  1.033728E-04 -1.445727E-04 -2.131075E-04  5.161313E-04
        12   4 -1.123414E-04 -2.486251E-05 -6.827832E-05  7.643294E-05 -8.961239E-05  5.451459E-04
        12   5  1.258365E-03  2.105953E-03  2.213891E-03 -1.690477E-04  1.798676E-04  2.658604E-04
        12   6  4.330663E-04  1.485667E-03  1.814474E-03 -2.914050E-04 -4.171589E-04  2.622414E-04
        12   7 -1.113520E-03 -2.153253E-03 -6.617272E-04 -7.771082E-05  2.037835E-04  2.407613E-04
        12   8 -1.627837E-03 -1.736594E-03 -6.537430E-04  1.511853E-04 -4.143050E-04  2.581897E-04
        13   1  4.157159E-04 -2.068420E-05  4.008983E-03 -1.177826E-04  6.446139E-04  1.299585E-03
        13   2  7.479727E-04 -2.511016E-04  3.246266E-03  2.539236E-04 -8.884417E-04  1.090095E-03
        13   3  2.830672E-03  3.731211E-03  6.824794E-03 -2.452307E-04  9.840134E-04 -4.350014E-04
        13   4  2.473293E-03  3.427814E-03  5.831322E-03  1.564503E-05 -1.075193E-03 -2.282043E-04
        13   5 -1.103756E-04 -5.019006E-04  1.847219E-03 -1.110548E-03  1.263136E-03  3.405016E-03
        13   6  3.978316E-04  1.460485E-03  2.333670E-03  1.055469E-03 -2.108989E-03  3.109469E-03
        13   7  4.374022E-04  4.679810E-04  7.961774E-04 -9.831069E-05  1.884742E-03 -2.772430E-03
        13   8 -1.782599E-03 -1.066987E-03 -4.376628E-04  5.433223E-04 -2.603423E-03 -2.328096E-03
        14   1  7.479727E-04 -2.511016E-04  3.246266E-03 -2.539236E-04  8.884417E-04  1.090095E-03
        14   2  4.157159E-04 -2.068420E-05  4.008983E-03  1.177826E-04 -6.446139E-04  1.299585E-03
        14   3  2.473293E-03  3.427814E-03  5.831322E-03 -1.564502E-05  1.075193E-03 -2.282043E-04
        14   4  2.830672E-03  3.731211E-03  6.824794E-03  2.452307E-04 -9.840134E-04 -4.350014E-04
        14   5  3.978316E-04  1.460485E-03  2.333670E-03 -1.055469E-03  2.108989E-03  3.109469E-03
        14   6 -1.103756E-04 -5.019006E-04  1.847219E-03  1.110548E-03 -1.263136E-03  3.405016E-03
        14   7 -1.782599E-03 -1.066987E-03 -4.376628E-04 -5.433223E-04  2.603423E-03 -2.328096E-03
        14   8  4.374022E-04  4.679810E-04  7.961774E-04  9.831069E-05 -1.884742E-03 -2.772430E-03
        15   1  2.830672E-03  3.731211E-03  6.824794E-03  2.452307E-04  9.840134E-04  4.350014E-04
        15   2  2.473293E-03  3.427814E-03  5.831322E-03 -1.564502E-05 -1.075193E-03  2.282043E-04
        15   3  4.157159E-04 -2.068420E-05  4.008983E-03  1.177826E-04  6.446139E-04 -1.299585E-03
        15   4  7.479728E-04 -2.511016E-04  3.246266E-03 -2.539236E-04 -8.884417E-04 -1.090095E-03
        15   5  4.374022E-04  4.679810E-04  7.961774E-04  9.831069E-05  1.884742E-03  2.772430E-03
        15   6 -1.782599E-03 -1.066987E-03 -4.376628E-04 -5.433223E-04 -2.603423E-03  2.328096E-03
        15   7 -1.103756E-04 -5.019006E-04  1.847219E-03  1.110548E-03  1.263136E-03 -3.405016E-03
        15   8  3.978316E-04  1.460485E-03  2.333670E-03 -1.055469E-03 -2.108989E-03 -3.109469E-03
        16   1  2.473293E-03  3.427814E-03  5.831322E-03  1.564502E-05  1.075193E-03  2.282043E-04
        16   2  2.830672E-03  3.731211E-03  6.824794E-03 -2.452307E-04 -9.840134E-04  4.350014E-04
        16   3  7.479728E-04 -2.511015E-04  3.246266E-03  2.539236E-04  8.884417E-04 -1.090095E-03
        16   4  4.157159E-04 -2.068420E-05  4.008983E-03 -1.177826E-04 -6.446139E-04 -1.299585E-03
        16   5 -1.782599E-03 -1.066987E-03 -4.376628E-04  5.433223E-04  2.603423E-03  2.328096E-03
        16   6  4.374022E-04  4.679810E-04  7.961774E-04 -9.831069E-05 -1.884742E-03  2.772430E-03
        16   7  3.978317E-04  1.460485E-03  2.333670E-03  1.055469E-03  2.108989E-03 -3.109469E-03
        16   8 -1.103756E-04 -5.019006E-04  1.847219E-03 -1.110548E-03 -1.263136E-03 -3.405016E-03
        17   1  3.467512E-03  4.639119E-03  1.112735E-02 -2.066785E-04  2.303259E-03  3.364752E-03
        17   2  3.914096E-03  6.278203E-03  1.173314E-02  6.039283E-04 -2.377851E-03  3.347900E-03
        17   3  3.513710E-03  2.703268E-03  9.508865E-03 -4.309420E-04  2.338352E-03 -2.627342E-03
        17   4  1.060456E-03  1.036910E-03  8.172773E-03  2.499476E-04 -2.619193E-03 -2.475974E-03
        17   5 -3.548598E-04  6.288935E-03  2.675293E-02  3.814181E-03  4.934133E-03  2.672234E-03
        17   6 -7.999628E-04  4.162048E-03  2.530090E-02 -1.174668E-03 -2.079153E-03  3.234689E-03
        17   7 -4.230750E-03 -4.316146E-03  2.016114E-02 -1.034835E-03  4.148876E-03  1.294371E-04
        17   8 -5.323084E-03 -5.116856E-03  1.924487E-02 -9.295468E-04 -8.692347E-04  4.305141E-05
        18   1  3.914096E-03  6.278203E-03  1.173314E-02 -6.039283E-04  2.377851E-03  3.347900E-03
        18   2  3.467512E-03  4.639119E-03  1.112735E-02  2.066785E-04 -2.303259E-03  3.364752E-03
        18   3  1.060456E-03  1.036910E-03  8.172773E-03 -2.499476E-04  2.619193E-03 -2.475974E-03
        18   4  3.513710E-03  2.703268E-03  9.508865E-03  4.309420E-04 -2.338352E-03 -2.627342E-03
        18   5 -7.999627E-04  4.162048E-03  2.530090E-02  1.174668E-03  2.079153E-03  3.234689E-03
        18   6 -3.548598E-04  6.288935E-03  2.675293E-02 -3.814181E-03 -4.934133E-03  2.672234E-03
        18   7 -5.323084E-03 -5.116856E-03  1.924487E-02  9.295468E-04  8.692347E-04  4.305141E-05
        18   8 -4.230750E-03 -4.316146E-03  2.016114E-02  1.034835E-03 -4.148876E-03  1.294371E-04
        19   1  3.513710E-03  2.703268E-03  9.508865E-03  4.309420E-04  2.338352E-03  2.627342E-03
        19   2  1.060456E-03  1.036910E-03  8.172773E-03 -2.499476E-04 -2.619193E-03  2.475974E-03
        19   3  3.467512E-03  4.639119E-03  1.112735E-02  2.066786E-04  2.303259E-03 -3.364752E-03
        19   4  3.914096E-03  6.278203E-03  1.173314E-02 -6.039283E-04 -2.377851E-03 -3.347900E-03
        19   5 -4.230750E-03 -4.316146E-03  2.016114E-02  1.034835E-03  4.148876E-03 -1.294371E-04
        19   6 -5.323084E-03 -5.116856E-03  1.924487E-02  9.295468E-04 -8.692347E-04 -4.305141E-05
        19   7 -3.548598E-04  6.288935E-03  2.675293E-02 -3.814181E-03  4.934133E-03 -2.672234E-03
        19   8 -7.999628E-04  4.162048E-03  2.530090E-02  1.174668E-03 -2.079153E-03 -3.234689E-03
        20   1  1.060456E-03  1.036910E-03  8.172773E-03  2.499476E-04  2.619193E-03  2.475974E-03
        20   2  3.513710E-03  2.703268E-03  9.508865E-03 -4.309420E-04 -2.338352E-03  2.627342E-03
        20   3  3.914096E-03  6.278203E-03  1.173314E-02  6.039283E-04  2.377851E-03 -3.347900E-03
        20   4  3.467512E-03  4.639119E-03  1.112735E-02 -2.066785E-04 -2.303259E-03 -3.364752E-03
        20   5 -5.323084E-03 -5.116856E-03  1.924487E-02 -9.295468E-04  8.692347E-04 -4.305141E-05
        20   6 -4.230750E-03 -4.316146E-03  2.016114E-02 -1.034835E-03 -4.148876E-03 -1.294371E-04
        20   7 -7.999628E-04  4.162048E-03  2.530090E-02 -1.174668E-03  2.079153E-03 -3.234689E-03
        20   8 -3.548598E-04  6.288935E-03  2.675293E-02  3.814181E-03 -4.934133E-03 -2.672234E-03
        21   1  1.247212E-02  9.367275E-03  1.155796E-01  6.973369E-03  1.564895E-02  2.523299E-02