
 displacements (vx,vy,vz) for set NALL and time  0.1000000E-02

         1  0.000000E+00  0.000000E+00  0.000000E+00
         2 -6.455944E-04  0.000000E+00  0.000000E+00
         3 -6.455944E-04 -6.455944E-04  0.000000E+00
         4  4.075245E-17 -6.455944E-04  0.000000E+00
         5  4.445012E-11  4.445054E-11  1.186741E-02
         6 -6.455944E-04  4.445050E-11  1.186741E-02
         7 -6.455944E-04 -6.455944E-04  1.186741E-02
         8  4.445017E-11 -6.455944E-04  1.186741E-02
         9 -1.613986E-04  1.430945E-15  0.000000E+00
        10 -3.227972E-04  3.673985E-15  0.000000E+00
        11 -4.841958E-04  1.403379E-15  0.000000E+00
        12 -6.455944E-04 -1.613986E-04  0.000000E+00
        13 -6.455944E-04 -3.227972E-04  0.000000E+00
        14 -6.455944E-04 -4.841958E-04  0.000000E+00
        15 -4.841958E-04 -6.455944E-04  0.000000E+00
        16 -3.227972E-04 -6.455944E-04  0.000000E+00
        17 -1.613986E-04 -6.455944E-04  0.000000E+00
        18  1.381020E-15 -4.841958E-04  0.000000E+00
        19  3.584322E-15 -3.227972E-04  0.000000E+00
        20  1.333300E-15 -1.613986E-04  0.000000E+00
        21 -1.613986E-04  4.703119E-11  1.186741E-02
        22 -3.227972E-04  4.660563E-11  1.186741E-02
        23 -4.841958E-04  4.703117E-11  1.186741E-02
        24 -6.455944E-04 -1.613986E-04  1.186741E-02
        25 -6.455944E-04 -3.227972E-04  1.186741E-02
        26 -6.455944E-04 -4.841958E-04  1.186741E-02
        27 -4.841958E-04 -6.455944E-04  1.186741E-02
        28 -3.227972E-04 -6.455944E-04  1.186741E-02
        29 -1.613986E-04 -6.455944E-04  1.186741E-02
        30  4.703078E-11 -4.841958E-04  1.186741E-02
        31  4.660521E-11 -3.227972E-04  1.186741E-02
        32  4.703077E-11 -1.613986E-04  1.186741E-02
        33 -6.455944E-04 -1.463465E-16  7.417132E-04
        34 -6.455944E-04 -6.637697E-15  1.483426E-03
        35 -6.455944E-04 -1.888924E-15  2.225140E-03
        36 -6.455944E-04 -7.706306E-16  2.966853E-03
        37 -6.455944E-04  1.782446E-14  3.708566E-03
        38 -6.455944E-04 -4.459381E-14  4.450279E-03
        39 -6.455944E-04 -3.957849E-14  5.191993E-03
        40 -6.455944E-04 -3.834004E-14  5.933706E-03
        41 -6.455944E-04  2.862591E-13  6.675419E-03
        42 -6.455944E-04 -4.250789E-13  7.417132E-03
        43 -6.455944E-04 -5.852233E-13  8.158845E-03
        44 -6.455944E-04 -6.711067E-13  8.900559E-03
        45 -6.455944E-04  4.297257E-12  9.642272E-03
        46 -6.455944E-04 -2.378243E-12  1.038399E-02
        47 -6.455944E-04 -1.091947E-11  1.112570E-02
        48 -1.091981E-11 -1.091931E-11  1.112570E-02
        49 -2.378537E-12 -2.378136E-12  1.038399E-02
        50  4.296968E-12  4.297348E-12  9.642272E-03
        51 -6.713192E-13 -6.709487E-13  8.900559E-03
        52 -5.854658E-13 -5.851439E-13  8.158845E-03
        53 -4.252789E-13 -4.249298E-13  7.417132E-03
        54  2.860358E-13  2.863762E-13  6.675419E-03
        55 -3.857457E-14 -3.824338E-14  5.933706E-03
        56 -3.974148E-14 -3.945072E-14  5.191993E-03
        57 -4.476532E-14 -4.448935E-14  4.450279E-03
        58  1.766449E-14  1.789609E-14  3.708566E-03
        59 -8.643852E-16 -6.258348E-16  2.966853E-03
        60 -1.947577E-15 -1.753247E-15  2.225140E-03
        61 -6.735374E-15 -6.525838E-15  1.483426E-03
        62 -1.944322E-16 -2.006366E-17  7.417132E-04
        63 -6.455944E-04 -6.455944E-04  7.417132E-04
        64 -6.455944E-04 -6.455944E-04  1.483426E-03
        65 -6.455944E-04 -6.455944E-04  2.225140E-03
        66 -6.455944E-04 -6.455944E-04  2.966853E-03
        67 -6.455944E-04 -6.455944E-04  3.708566E-03
        68 -6.455944E-04 -6.455944E-04  4.450279E-03
        69 -6.455944E-04 -6.455944E-04  5.191993E-03
        70 -6.455944E-04 -6.455944E-04  5.933706E-03
        71 -6.455944E-04 -6.455944E-04  6.675419E-03
        72 -6.455944E-04 -6.455944E-04  7.417132E-03
        73 -6.455944E-04 -6.455944E-04  8.158845E-03
        74 -6.455944E-04 -6.455944E-04  8.900559E-03
        75 -6.455944E-04 -6.455944E-04  9.642272E-03
        76 -6.455944E-04 -6.455944E-04  1.038399E-02
        77 -6.455944E-04 -6.455944E-04  1.112570E-02
        78 -6.964933E-17 -6.455944E-04  7.417132E-04
        79 -6.637609E-15 -6.455944E-04  1.483426E-03
        80 -1.885397E-15 -6.455944E-04  2.225140E-03
        81 -7.533127E-16 -6.455944E-04  2.966853E-03
        82  1.778552E-14 -6.455944E-04  3.708566E-03
        83 -4.461174E-14 -6.455944E-04  4.450279E-03
        84 -3.963249E-14 -6.455944E-04  5.191993E-03
        85 -3.843736E-14 -6.455944E-04  5.933706E-03
        86  2.861764E-13 -6.455944E-04  6.675419E-03
        87 -4.251746E-13 -6.455944E-04  7.417132E-03
        88 -5.853514E-13 -6.455944E-04  8.158845E-03
        89 -6.711685E-13 -6.455944E-04  8.900559E-03
        90  4.297090E-12 -6.455944E-04  9.642272E-03
        91 -2.378467E-12 -6.455944E-04  1.038399E-02
        92 -1.091970E-11 -6.455944E-04  1.112570E-02
        93 -3.227972E-04 -1.613986E-04  0.000000E+00
        94 -1.613986E-04 -3.227972E-04  0.000000E+00
        95 -3.227972E-04 -3.227972E-04  0.000000E+00
        96 -4.841958E-04 -3.227972E-04  0.000000E+00
        97 -3.227972E-04 -4.841958E-04  0.000000E+00
        98 -3.227972E-04 -1.613986E-04  1.186741E-02
        99 -1.613986E-04 -3.227972E-04  1.186741E-02
       100 -3.227972E-04 -3.227972E-04  1.186741E-02
       101 -4.841958E-04 -3.227972E-04  1.186741E-02
       102 -3.227972E-04 -4.841958E-04  1.186741E-02
       103 -3.227972E-04 -6.578488E-16  7.417132E-04
       104 -1.613986E-04 -5.080455E-15  1.483426E-03
       105 -3.227972E-04 -4.582071E-15  1.483426E-03
       106 -4.841958E-04 -5.104654E-15  1.483426E-03
       107 -3.227972E-04 -6.278028E-15  2.225140E-03
       108 -1.613986E-04  7.185317E-15  2.966853E-03
       109 -3.227972E-04  1.629037E-14  2.966853E-03
       110 -4.841958E-04  7.102322E-15  2.966853E-03
       111 -3.227972E-04  1.199002E-14  3.708566E-03
       112 -1.613986E-04 -2.739500E-14  4.450279E-03
       113 -3.227972E-04 -1.055251E-14  4.450279E-03
       114 -4.841958E-04 -2.746795E-14  4.450279E-03
       115 -3.227972E-04 -7.656866E-14  5.191993E-03
       116 -1.613986E-04  5.065920E-14  5.933706E-03
       117 -3.227972E-04  1.338487E-13  5.933706E-03
       118 -4.841958E-04  5.061220E-14  5.933706E-03
       119 -3.227972E-04  1.745304E-13  6.675419E-03
       120 -1.613986E-04 -2.108174E-13  7.417132E-03
       121 -3.227972E-04  4.034385E-14  7.417132E-03
       122 -4.841958E-04 -2.108923E-13  7.417132E-03
       123 -3.227972E-04 -9.056240E-13  8.158845E-03
       124 -1.613986E-04  3.917985E-13  8.900559E-03
       125 -3.227972E-04  1.331821E-12  8.900559E-03
       126 -4.841958E-04  3.917189E-13  8.900559E-03
       127 -3.227972E-04  2.519707E-12  9.642272E-03
       128 -1.613986E-04  2.245570E-12  1.038399E-02
       129 -3.227972E-04  7.265838E-12  1.038399E-02
       130 -4.841958E-04  2.245479E-12  1.038399E-02
       131 -3.227972E-04 -2.135662E-11  1.112570E-02
       132 -6.455944E-04 -3.227972E-04  7.417132E-04
       133 -6.455944E-04 -1.613986E-04  1.483426E-03
       134 -6.455944E-04 -3.227972E-04  1.483426E-03
       135 -6.455944E-04 -4.841958E-04  1.483426E-03
       136 -6.455944E-04 -3.227972E-04  2.225140E-03
       137 -6.455944E-04 -1.613986E-04  2.966853E-03
       138 -6.455944E-04 -3.227972E-04  2.966853E-03
       139 -6.455944E-04 -4.841958E-04  2.966853E-03
       140 -6.455944E-04 -3.227972E-04  3.708566E-03
       141 -6.455944E-04 -1.613986E-04  4.450279E-03
       142 -6.455944E-04 -3.227972E-04  4.450279E-03
       143 -6.455944E-04 -4.841958E-04  4.450279E-03
       144 -6.455944E-04 -3.227972E-04  5.191993E-03
       145 -6.455944E-04 -1.613986E-04  5.933706E-03
       146 -6.455944E-04 -3.227972E-04  5.933706E-03
       147 -6.455944E-04 -4.841958E-04  5.933706E-03
       148 -6.455944E-04 -3.227972E-04  6.675419E-03
       149 -6.455944E-04 -1.613986E-04  7.417132E-03
       150 -6.455944E-04 -3.227972E-04  7.417132E-03
       151 -6.455944E-04 -4.841958E-04  7.417132E-03
       152 -6.455944E-04 -3.227972E-04  8.158845E-03
       153 -6.455944E-04 -1.613986E-04  8.900559E-03
       154 -6.455944E-04 -3.227972E-04  8.900559E-03
       155 -6.455944E-04 -4.841958E-04  8.900559E-03
       156 -6.455944E-04 -3.227972E-04  9.642272E-03
       157 -6.455944E-04 -1.613986E-04  1.038399E-02
       158 -6.455944E-04 -3.227972E-04  1.038399E-02
       159 -6.455944E-04 -4.841958E-04  1.038399E-02
       160 -6.455944E-04 -3.227972E-04  1.112570E-02
       161 -3.227972E-04 -6.455944E-04  7.417132E-04
       162 -4.841958E-04 -6.455944E-04  1.483426E-03
       163 -3.227972E-04 -6.455944E-04  1.483426E-03
       164 -1.613986E-04 -6.455944E-04  1.483426E-03
       165 -3.227972E-04 -6.455944E-04  2.225140E-03
       166 -4.841958E-04 -6.455944E-04  2.966853E-03
       167 -3.227972E-04 -6.455944E-04  2.966853E-03
       168 -1.613986E-04 -6.455944E-04  2.966853E-03
       169 -3.227972E-04 -6.455944E-04  3.708566E-03
       170 -4.841958E-04 -6.455944E-04  4.450279E-03
       171 -3.227972E-04 -6.455944E-04  4.450279E-03
       172 -1.613986E-04 -6.455944E-04  4.450279E-03
       173 -3.227972E-04 -6.455944E-04  5.191993E-03
       174 -4.841958E-04 -6.455944E-04  5.933706E-03
       175 -3.227972E-04 -6.455944E-04  5.933706E-03
       176 -1.613986E-04 -6.455944E-04  5.933706E-03
       177 -3.227972E-04 -6.455944E-04  6.675419E-03
       178 -4.841958E-04 -6.455944E-04  7.417132E-03
       179 -3.227972E-04 -6.455944E-04  7.417132E-03
       180 -1.613986E-04 -6.455944E-04  7.417132E-03
       181 -3.227972E-04 -6.455944E-04  8.158845E-03
       182 -4.841958E-04 -6.455944E-04  8.900559E-03
       183 -3.227972E-04 -6.455944E-04  8.900559E-03
       184 -1.613986E-04 -6.455944E-04  8.900559E-03
       185 -3.227972E-04 -6.455944E-04  9.642272E-03
       186 -4.841958E-04 -6.455944E-04  1.038399E-02
       187 -3.227972E-04 -6.455944E-04  1.038399E-02
       188 -1.613986E-04 -6.455944E-04  1.038399E-02
       189 -3.227972E-04 -6.455944E-04  1.112570E-02
       190 -6.816127E-16 -3.227972E-04  7.417132E-04
       191 -5.096205E-15 -4.841958E-04  1.483426E-03
       192 -4.601095E-15 -3.227972E-04  1.483426E-03
       193 -5.165454E-15 -1.613986E-04  1.483426E-03
       194 -6.344764E-15 -3.227972E-04  2.225140E-03
       195  7.073370E-15 -4.841958E-04  2.966853E-03
       196  1.620349E-14 -3.227972E-04  2.966853E-03
       197  7.016439E-15 -1.613986E-04  2.966853E-03
       198  1.187718E-14 -3.227972E-04  3.708566E-03
       199 -2.754536E-14 -4.841958E-04  4.450279E-03
       200 -1.071095E-14 -3.227972E-04  4.450279E-03
       201 -2.762806E-14 -1.613986E-04  4.450279E-03
       202 -7.673671E-14 -3.227972E-04  5.191993E-03
       203  5.044575E-14 -4.841958E-04  5.933706E-03
       204  1.336313E-13 -3.227972E-04  5.933706E-03
       205  5.038916E-14 -1.613986E-04  5.933706E-03
       206  1.742805E-13 -3.227972E-04  6.675419E-03
       207 -2.110669E-13 -4.841958E-04  7.417132E-03
       208  4.009670E-14 -3.227972E-04  7.417132E-03
       209 -2.111244E-13 -1.613986E-04  7.417132E-03
       210 -9.058617E-13 -3.227972E-04  8.158845E-03
       211  3.915400E-13 -4.841958E-04  8.900559E-03
       212  1.331526E-12 -3.227972E-04  8.900559E-03
       213  3.914485E-13 -1.613986E-04  8.900559E-03
       214  2.519371E-12 -3.227972E-04  9.642272E-03
       215  2.245251E-12 -4.841958E-04  1.038399E-02
       216  7.265544E-12 -3.227972E-04  1.038399E-02
       217  2.245188E-12 -1.613986E-04  1.038399E-02
       218 -2.135699E-11 -3.227972E-04  1.112570E-02
       219 -3.227972E-04 -3.227972E-04  7.417132E-04
       220 -3.227972E-04 -1.613986E-04  1.483426E-03
       221 -1.613986E-04 -3.227972E-04  1.483426E-03
       222 -3.227972E-04 -3.227972E-04  1.483426E-03
       223 -4.841958E-04 -3.227972E-04  1.483426E-03
       224 -3.227972E-04 -4.841958E-04  1.483426E-03
       225 -3.227972E-04 -3.227972E-04  2.225140E-03
       226 -3.227972E-04 -1.613986E-04  2.966853E-03
       227 -1.613986E-04 -3.227972E-04  2.966853E-03
       228 -3.227972E-04 -3.227972E-04  2.966853E-03
       229 -4.841958E-04 -3.227972E-04  2.966853E-03
       230 -3.227972E-04 -4.841958E-04  2.966853E-03
       231 -3.227972E-04 -3.227972E-04  3.708566E-03
       232 -3.227972E-04 -1.613986E-04  4.450279E-03
       233 -1.613986E-04 -3.227972E-04  4.450279E-03
       234 -3.227972E-04 -3.227972E-04  4.450279E-03
       235 -4.841958E-04 -3.227972E-04  4.450279E-03
       236 -3.227972E-04 -4.841958E-04  4.450279E-03
       237 -3.227972E-04 -3.227972E-04  5.191993E-03
       238 -3.227972E-04 -1.613986E-04  5.933706E-03
       239 -1.613986E-04 -3.227972E-04  5.933706E-03
       240 -3.227972E-04 -3.227972E-04  5.933706E-03
       241 -4.841958E-04 -3.227972E-04  5.933706E-03
       242 -3.227972E-04 -4.841958E-04  5.933706E-03
       243 -3.227972E-04 -3.227972E-04  6.675419E-03
       244 -3.227972E-04 -1.613986E-04  7.417132E-03
       245 -1.613986E-04 -3.227972E-04  7.417132E-03
       246 -3.227972E-04 -3.227972E-04  7.417132E-03
       247 -4.841958E-04 -3.227972E-04  7.417132E-03
       248 -3.227972E-04 -4.841958E-04  7.417132E-03
       249 -3.227972E-04 -3.227972E-04  8.158845E-03
       250 -3.227972E-04 -1.613986E-04  8.900559E-03
       251 -1.613986E-04 -3.227972E-04  8.900559E-03
       252 -3.227972E-04 -3.227972E-04  8.900559E-03
       253 -4.841958E-04 -3.227972E-04  8.900559E-03
       254 -3.227972E-04 -4.841958E-04  8.900559E-03
       255 -3.227972E-04 -3.227972E-04  9.642272E-03
       256 -3.227972E-04 -1.613986E-04  1.038399E-02
       257 -1.613986E-04 -3.227972E-04  1.038399E-02
       258 -3.227972E-04 -3.227972E-04  1.038399E-02
       259 -4.841958E-04 -3.227972E-04  1.038399E-02
       260 -3.227972E-04 -4.841958E-04  1.038399E-02
       261 -3.227972E-04 -3.227972E-04  1.112570E-02

 stresses (elem, integ.pnt.,sxx,syy,szz,sxy,sxz,syz) for set EALL and time  0.1000000E-02

         1   1  4.018327E-05  4.018327E-05  1.001287E+02 -1.152507E-10  4.455014E-10  4.481889E-10
         1   2  4.018225E-05  4.018263E-05  1.001287E+02 -8.808053E-11  2.331005E-10 -4.935733E-11
         1   3  4.018266E-05  4.018228E-05  1.001287E+02 -8.835732E-11 -4.760604E-11  2.312430E-10
         1   4  4.018290E-05  4.018290E-05  1.001287E+02 -1.188466E-10 -1.313422E-10 -1.314391E-10
         1   5  4.018119E-05  4.018119E-05  1.001287E+02  3.558324E-10  4.096095E-10  4.093770E-10
         1   6  4.018445E-05  4.018373E-05  1.001287E+02  2.838648E-10 -2.529233E-10  2.119782E-10
         1   7  4.018369E-05  4.018441E-05  1.001287E+02  2.853520E-10  2.124412E-10 -2.507952E-10
         1   8  4.018282E-05  4.018282E-05  1.001287E+02  2.864998E-10 -2.905090E-10 -2.909801E-10
         2   1  4.018224E-05  4.018262E-05  1.001287E+02  8.741511E-11 -2.339112E-10 -4.952406E-11
         2   2  4.018323E-05  4.018323E-05  1.001287E+02  1.162269E-10 -4.451561E-10  4.457822E-10
         2   3  4.018290E-05  4.018290E-05  1.001287E+02  1.198974E-10  1.318729E-10 -1.310531E-10
         2   4  4.018267E-05  4.018229E-05  1.001287E+02  8.720150E-11  4.778163E-11  2.334030E-10
         2   5  4.018446E-05  4.018373E-05  1.001287E+02 -2.827631E-10  2.533751E-10  2.130471E-10
         2   6  4.018115E-05  4.018115E-05  1.001287E+02 -3.575358E-10 -4.107761E-10  4.113718E-10
         2   7  4.018282E-05  4.018282E-05  1.001287E+02 -2.867428E-10  2.909965E-10 -2.914994E-10
         2   8  4.018369E-05  4.018441E-05  1.001287E+02 -2.843118E-10 -2.123493E-10 -2.524669E-10
         3   1  4.018263E-05  4.018224E-05  1.001287E+02  8.685474E-11 -4.767678E-11 -2.348586E-10
         3   2  4.018290E-05  4.018291E-05  1.001287E+02  1.196154E-10 -1.323458E-10  1.326840E-10
         3   3  4.018327E-05  4.018327E-05  1.001287E+02  1.159839E-10  4.460833E-10 -4.435670E-10
         3   4  4.018225E-05  4.018264E-05  1.001287E+02  8.720912E-11  2.310221E-10  4.728179E-11
         3   5  4.018373E-05  4.018446E-05  1.001287E+02 -2.812468E-10  2.118834E-10  2.536961E-10
         3   6  4.018282E-05  4.018282E-05  1.001287E+02 -2.854949E-10 -2.907674E-10  2.905552E-10
         3   7  4.018119E-05  4.018120E-05  1.001287E+02 -3.575353E-10  4.096095E-10 -4.128332E-10
         3   8  4.018441E-05  4.018369E-05  1.001287E+02 -2.845971E-10 -2.515793E-10 -2.113989E-10
         4   1  4.018290E-05  4.018290E-05  1.001287E+02 -1.187265E-10  1.318150E-10  1.329065E-10
         4   2  4.018263E-05  4.018224E-05  1.001287E+02 -8.810753E-11  4.820791E-11 -2.324930E-10
         4   3  4.018225E-05  4.018263E-05  1.001287E+02 -8.809288E-11 -2.333392E-10  4.654355E-11
         4   4  4.018327E-05  4.018327E-05  1.001287E+02 -1.151117E-10 -4.441226E-10 -4.456923E-10
         4   5  4.018282E-05  4.018282E-05  1.001287E+02  2.839903E-10  2.909681E-10  2.897254E-10
         4   6  4.018373E-05  4.018446E-05  1.001287E+02  2.840034E-10 -2.123777E-10  2.521464E-10
         4   7  4.018446E-05  4.018373E-05  1.001287E+02  2.844952E-10  2.541686E-10 -2.110109E-10
         4   8  4.018115E-05  4.018114E-05  1.001287E+02  3.575833E-10 -4.118004E-10 -4.107764E-10
         5   1  4.018365E-05  4.018366E-05  1.001287E+02 -1.197773E-10 -6.914213E-10 -6.926428E-10
         5   2  4.018334E-05  4.018310E-05  1.001287E+02 -6.500098E-11 -7.354350E-10 -7.609158E-13
         5   3  4.018306E-05  4.018331E-05  1.001287E+02 -6.739355E-11 -1.869078E-12 -7.348330E-10
         5   4  4.018306E-05  4.018306E-05  1.001287E+02  4.844794E-11  7.289472E-11  7.278925E-11
         5   5  4.018799E-05  4.018799E-05  1.001287E+02 -4.594756E-10 -1.601809E-09 -1.601762E-09
         5   6  4.017915E-05  4.018027E-05  1.001287E+02 -4.857706E-10  1.245920E-09 -5.160303E-10
         5   7  4.018027E-05  4.017915E-05  1.001287E+02 -4.854352E-10 -5.156854E-10  1.243880E-09
         5   8  4.018367E-05  4.018367E-05  1.001287E+02 -6.142613E-10  1.166598E-09  1.167688E-09
         6   1  4.018335E-05  4.018311E-05  1.001287E+02  6.715747E-11  7.339916E-10 -1.206601E-12
         6   2  4.018367E-05  4.018367E-05  1.001287E+02  1.181924E-10  6.926611E-10 -6.930824E-10
         6   3  4.018301E-05  4.018301E-05  1.001287E+02 -4.960676E-11 -7.287314E-11  7.303240E-11
         6   4  4.018307E-05  4.018331E-05  1.001287E+02  6.745640E-11  1.659996E-12 -7.343970E-10
         6   5  4.017915E-05  4.018027E-05  1.001287E+02  4.857040E-10 -1.245553E-09 -5.167209E-10
         6   6  4.018804E-05  4.018804E-05  1.001287E+02  4.585859E-10  1.601657E-09 -1.602436E-09
         6   7  4.018367E-05  4.018367E-05  1.001287E+02  6.153462E-10 -1.167593E-09  1.167431E-09
         6   8  4.018027E-05  4.017915E-05  1.001287E+02  4.850590E-10  5.168075E-10  1.244598E-09
         7   1  4.018307E-05  4.018331E-05  1.001287E+02  6.604815E-11 -2.484711E-12  7.341268E-10
         7   2  4.018306E-05  4.018306E-05  1.001287E+02 -5.141777E-11  7.308406E-11 -7.293426E-11
         7   3  4.018366E-05  4.018365E-05  1.001287E+02  1.194229E-10 -6.921463E-10  6.916456E-10
         7   4  4.018335E-05  4.018310E-05  1.001287E+02  6.802443E-11 -7.342834E-10  1.841157E-12
         7   5  4.018027E-05  4.017915E-05  1.001287E+02  4.856316E-10 -5.158160E-10 -1.245163E-09
         7   6  4.018363E-05  4.018362E-05  1.001287E+02  6.152193E-10  1.166348E-09 -1.166971E-09
         7   7  4.018804E-05  4.018804E-05  1.001287E+02  4.585109E-10 -1.602064E-09  1.603224E-09
         7   8  4.017919E-05  4.018032E-05  1.001287E+02  4.849359E-10  1.244334E-09  5.154806E-10
         8   1  4.018301E-05  4.018301E-05  1.001287E+02  4.961377E-11 -7.237493E-11 -7.243746E-11
         8   2  4.018307E-05  4.018331E-05  1.001287E+02 -6.529893E-11  1.474817E-12  7.351495E-10
         8   3  4.018331E-05  4.018307E-05  1.001287E+02 -6.658380E-11  7.347110E-10  2.072608E-12
         8   4  4.018367E-05  4.018367E-05  1.001287E+02 -1.204848E-10  6.924535E-10  6.916403E-10
         8   5  4.018363E-05  4.018362E-05  1.001287E+02 -6.152431E-10 -1.167470E-09 -1.166474E-09
         8   6  4.018027E-05  4.017915E-05  1.001287E+02 -4.854500E-10  5.169226E-10 -1.245160E-09
         8   7  4.017919E-05  4.018032E-05  1.001287E+02 -4.857963E-10 -1.245432E-09  5.156173E-10
         8   8  4.018800E-05  4.018799E-05  1.001287E+02 -4.585547E-10  1.602703E-09  1.602920E-09
         9   1  4.017929E-05  4.017928E-05  1.001287E+02 -3.750867E-10  2.371614E-09  2.371692E-09
         9   2  4.018239E-05  4.018328E-05  1.001287E+02 -2.539230E-10  1.971160E-09 -5.539411E-10
         9   3  4.018323E-05  4.018235E-05  1.001287E+02 -2.516785E-10 -5.540276E-10  1.971580E-09
         9   4  4.018187E-05  4.018187E-05  1.001287E+02 -2.522657E-10 -4.725921E-10 -4.720039E-10
         9   5  4.017164E-05  4.017163E-05  1.001287E+02  2.540591E-09  4.107024E-09  4.107382E-09
         9   6  4.019141E-05  4.018854E-05  1.001287E+02  2.292308E-09 -4.982241E-09  3.340221E-09
         9   7  4.018859E-05  4.019145E-05  1.001287E+02  2.292952E-09  3.339948E-09 -4.982315E-09
         9   8  4.018085E-05  4.018084E-05  1.001287E+02  2.034013E-09 -3.326186E-09 -3.327002E-09
        10   1  4.018239E-05  4.018328E-05  1.001287E+02  2.517935E-10 -1.969047E-09 -5.538728E-10
        10   2  4.017928E-05  4.017928E-05  1.001287E+02  3.775579E-10 -2.372959E-09  2.373272E-09
        10   3  4.018191E-05  4.018191E-05  1.001287E+02  2.509181E-10  4.722862E-10 -4.723809E-10
        10   4  4.018328E-05  4.018239E-05  1.001287E+02  2.524758E-10  5.540698E-10  1.970766E-09
        10   5  4.019141E-05  4.018855E-05  1.001287E+02 -2.293114E-09  4.981302E-09  3.340108E-09
        10   6  4.017165E-05  4.017165E-05  1.001287E+02 -2.538576E-09 -4.105992E-09  4.106655E-09
        10   7  4.018084E-05  4.018084E-05  1.001287E+02 -2.034617E-09  3.327443E-09 -3.326503E-09
        10   8  4.018855E-05  4.019141E-05  1.001287E+02 -2.292492E-09 -3.341240E-09 -4.981763E-09
        11   1  4.018323E-05  4.018235E-05  1.001287E+02  2.520356E-10 -5.537599E-10 -1.969800E-09
        11   2  4.018187E-05  4.018187E-05  1.001287E+02  2.532903E-10 -4.724709E-10  4.715537E-10
        11   3  4.017933E-05  4.017933E-05  1.001287E+02  3.752948E-10  2.372269E-09 -2.372770E-09
        11   4  4.018239E-05  4.018327E-05  1.001287E+02  2.523842E-10  1.971631E-09  5.539179E-10
        11   5  4.018855E-05  4.019142E-05  1.001287E+02 -2.293198E-09  3.340173E-09  4.980903E-09
        11   6  4.018084E-05  4.018085E-05  1.001287E+02 -2.033872E-09 -3.326370E-09  3.326643E-09
        11   7  4.017168E-05  4.017169E-05  1.001287E+02 -2.539669E-09  4.107615E-09 -4.105672E-09
        11   8  4.019141E-05  4.018855E-05  1.001287E+02 -2.292752E-09 -4.982460E-09 -3.340602E-09
        12   1  4.018187E-05  4.018187E-05  1.001287E+02 -2.513549E-10  4.718231E-10  4.715031E-10
        12   2  4.018323E-05  4.018235E-05  1.001287E+02 -2.539138E-10  5.542265E-10 -1.971019E-09
        12   3  4.018239E-05  4.018328E-05  1.001287E+02 -2.512377E-10 -1.970470E-09  5.541612E-10
        12   4  4.017928E-05  4.017928E-05  1.001287E+02 -3.755443E-10 -2.373402E-09 -2.372964E-09
        12   5  4.018085E-05  4.018084E-05  1.001287E+02  2.034757E-09  3.327480E-09  3.327122E-09
        12   6  4.018855E-05  4.019141E-05  1.001287E+02  2.292015E-09 -3.341287E-09  4.981913E-09
        12   7  4.019137E-05  4.018851E-05  1.001287E+02  2.292711E-09  4.981509E-09 -3.340875E-09
        12   8  4.017164E-05  4.017164E-05  1.001287E+02  2.539314E-09 -4.106399E-09 -4.106573E-09
        13   1  4.019074E-05  4.019073E-05  1.001287E+02 -1.468199E-09 -3.968512E-09 -3.969863E-09
        13   2  4.018565E-05  4.018538E-05  1.001287E+02 -8.112461E-10 -4.364957E-09 -4.225498E-10
        13   3  4.018538E-05  4.018565E-05  1.001287E+02 -8.109009E-10 -4.215336E-10 -4.363967E-09
        13   4  4.018549E-05  4.018549E-05  1.001287E+02  2.112776E-11  6.750432E-10  6.755212E-10
        13   5  4.021632E-05  4.021632E-05  1.001287E+02 -6.544411E-10 -1.944571E-08 -1.944492E-08
        13   6  4.016253E-05  4.016231E-05  1.001287E+02 -2.531233E-09  1.637293E-08 -7.636099E-09
        13   7  4.016235E-05  4.016258E-05  1.001287E+02 -2.531028E-09 -7.636805E-09  1.637203E-08
        13   8  4.019372E-05  4.019372E-05  1.001287E+02 -3.836393E-09  1.308991E-08  1.308975E-08
        14   1  4.018569E-05  4.018542E-05  1.001287E+02  8.108963E-10  4.363276E-09 -4.219431E-10
        14   2  4.019078E-05  4.019078E-05  1.001287E+02  1.467426E-09  3.969394E-09 -3.969356E-09
        14   3  4.018544E-05  4.018544E-05  1.001287E+02 -1.994025E-11 -6.759523E-10  6.757566E-10
        14   4  4.018537E-05  4.018565E-05  1.001287E+02  8.102558E-10  4.227919E-10 -4.364066E-09
        14   5  4.016253E-05  4.016231E-05  1.001287E+02  2.530506E-09 -1.637148E-08 -7.635908E-09
        14   6  4.021628E-05  4.021628E-05  1.001287E+02  6.550023E-10  1.944469E-08 -1.944466E-08
        14   7  4.019377E-05  4.019376E-05  1.001287E+02  3.836242E-09 -1.308941E-08  1.308955E-08
        14   8  4.016231E-05  4.016254E-05  1.001287E+02  2.530891E-09  7.636028E-09  1.637204E-08
        15   1  4.018538E-05  4.018565E-05  1.001287E+02  8.111615E-10 -4.215927E-10  4.364782E-09
        15   2  4.018545E-05  4.018545E-05  1.001287E+02 -1.971269E-11  6.755957E-10 -6.751482E-10
        15   3  4.019078E-05  4.019078E-05  1.001287E+02  1.467731E-09 -3.969568E-09  3.968828E-09
        15   4  4.018570E-05  4.018542E-05  1.001287E+02  8.105378E-10 -4.364308E-09  4.219657E-10
        15   5  4.016231E-05  4.016253E-05  1.001287E+02  2.529927E-09 -7.636692E-09 -1.637253E-08
        15   6  4.019372E-05  4.019372E-05  1.001287E+02  3.836705E-09  1.308990E-08 -1.309028E-08
        15   7  4.021632E-05  4.021632E-05  1.001287E+02  6.543751E-10 -1.944462E-08  1.944538E-08
        15   8  4.016254E-05  4.016231E-05  1.001287E+02  2.531290E-09  1.637199E-08  7.636616E-09
        16   1  4.018549E-05  4.018549E-05  1.001287E+02  1.998545E-11 -6.757128E-10 -6.754855E-10
        16   2  4.018538E-05  4.018565E-05  1.001287E+02 -8.111987E-10  4.224788E-10  4.363779E-09
        16   3  4.018570E-05  4.018542E-05  1.001287E+02 -8.111322E-10  4.363900E-09  4.224490E-10
        16   4  4.019078E-05  4.019078E-05  1.001287E+02 -1.467232E-09  3.969371E-09  3.969540E-09
        16   5  4.019377E-05  4.019376E-05  1.001287E+02 -3.835558E-09 -1.308945E-08 -1.309018E-08
        16   6  4.016231E-05  4.016253E-05  1.001287E+02 -2.531191E-09  7.636083E-09 -1.637215E-08
        16   7  4.016253E-05  4.016230E-05  1.001287E+02 -2.530285E-09 -1.637200E-08  7.636723E-09
        16   8  4.021631E-05  4.021631E-05  1.001287E+02 -6.545209E-10  1.944527E-08  1.944483E-08
        17   1  4.015009E-05  4.015009E-05  1.001287E+02 -5.805140E-09  1.785131E-08  1.785139E-08
        17   2  4.017551E-05  4.018275E-05  1.001287E+02 -3.981437E-09  1.187300E-08 -5.310387E-09
        17   3  4.018275E-05  4.017551E-05  1.001287E+02 -3.981591E-09 -5.310739E-09  1.187223E-08
        17   4  4.016772E-05  4.016772E-05  1.001287E+02 -2.573587E-09 -5.578921E-09 -5.579288E-09
        17   5  4.011850E-05  4.011850E-05  1.001287E+02  1.850587E-08  5.004457E-08  5.004465E-08
        17   6  4.022297E-05  4.022184E-05  1.001287E+02  1.862532E-08 -6.100331E-08  4.154338E-08
        17   7  4.022188E-05  4.022300E-05  1.001287E+02  1.862553E-08  4.154374E-08 -6.100287E-08
        17   8  4.015403E-05  4.015403E-05  1.001287E+02  1.523617E-08 -3.599252E-08 -3.599171E-08
        18   1  4.017552E-05  4.018275E-05  1.001287E+02  3.981131E-09 -1.187241E-08 -5.310884E-09
        18   2  4.015009E-05  4.015009E-05  1.001287E+02  5.806061E-09 -1.785147E-08  1.785057E-08
        18   3  4.016772E-05  4.016772E-05  1.001287E+02  2.573819E-09  5.579209E-09 -5.579181E-09
        18   4  4.018279E-05  4.017556E-05  1.001287E+02  3.981205E-09  5.309843E-09  1.187289E-08
        18   5  4.022296E-05  4.022183E-05  1.001287E+02 -1.862656E-08  6.100272E-08  4.154321E-08
        18   6  4.011850E-05  4.011850E-05  1.001287E+02 -1.850575E-08 -5.004413E-08  5.004408E-08
        18   7  4.015398E-05  4.015399E-05  1.001287E+02 -1.523476E-08  3.599177E-08 -3.599214E-08
        18   8  4.022189E-05  4.022301E-05  1.001287E+02 -1.862624E-08 -4.154302E-08 -6.100344E-08
        19   1  4.018275E-05  4.017551E-05  1.001287E+02  3.981455E-09 -5.310307E-09 -1.187255E-08
        19   2  4.016771E-05  4.016771E-05  1.001287E+02  2.573607E-09 -5.579057E-09  5.579356E-09
        19   3  4.015009E-05  4.015009E-05  1.001287E+02  5.806381E-09  1.785174E-08 -1.785112E-08
        19   4  4.017556E-05  4.018279E-05  1.001287E+02  3.981042E-09  1.187228E-08  5.310714E-09
        19   5  4.022188E-05  4.022300E-05  1.001287E+02 -1.862562E-08  4.154342E-08  6.100257E-08
        19   6  4.015398E-05  4.015398E-05  1.001287E+02 -1.523518E-08 -3.599222E-08  3.599253E-08
        19   7  4.011850E-05  4.011850E-05  1.001287E+02 -1.850536E-08  5.004353E-08 -5.004443E-08
        19   8  4.022301E-05  4.022189E-05  1.001287E+02 -1.862722E-08 -6.100224E-08 -4.154330E-08
        20   1  4.016772E-05  4.016772E-05  1.001287E+02 -2.573537E-09  5.579447E-09  5.579217E-09
        20   2  4.018275E-05  4.017552E-05  1.001287E+02 -3.981586E-09  5.310163E-09 -1.187208E-08
        20   3  4.017555E-05  4.018278E-05  1.001287E+02 -3.982109E-09 -1.187257E-08  5.310071E-09
        20   4  4.015009E-05  4.015009E-05  1.001287E+02 -5.805876E-09 -1.785104E-08 -1.785143E-08
        20   5  4.015394E-05  4.015394E-05  1.001287E+02  1.523561E-08  3.599163E-08  3.599202E-08
        20   6  4.022184E-05  4.022296E-05  1.001287E+02  1.862621E-08 -4.154350E-08  6.100310E-08
        20   7  4.022301E-05  4.022188E-05  1.001287E+02  1.862523E-08  6.100345E-08 -4.154379E-08
        20   8  4.011850E-05  4.011850E-05  1.001287E+02  1.850702E-08 -5.004429E-08 -5.004368E-08
        21   1  4.024785E-05  4.024785E-05  1.001287E+02 -1.428217E-08 -2.120302E-08 -2.120334E-08