
 displacements (vx,vy,vz) for set NALL and time  0.1000000E+01

         1  0.000000E+00  0.000000E+00  0.000000E+00
         2 -7.423281E-02  0.000000E+00  0.000000E+00
         3 -7.423281E-02 -7.423281E-02  0.000000E+00
         4 -3.290134E-11 -7.423281E-02  0.000000E+00
         5 -1.035968E-10  3.522703E-11  1.415438E+00
         6 -7.423281E-02  3.085262E-11  1.415438E+00
         7 -7.423281E-02 -7.423281E-02  1.415438E+00
         8 -9.979959E-11 -7.423281E-02  1.415438E+00
         9 -1.855820E-02  1.005865E-11  0.000000E+00
        10 -3.711640E-02  1.138493E-11  0.000000E+00
        11 -5.567461E-02  9.749341E-12  0.000000E+00
        12 -7.423281E-02 -1.855820E-02  0.000000E+00
        13 -7.423281E-02 -3.711640E-02  0.000000E+00
        14 -7.423281E-02 -5.567461E-02  0.000000E+00
        15 -5.567461E-02 -7.423281E-02  0.000000E+00
        16 -3.711640E-02 -7.423281E-02  0.000000E+00
        17 -1.855820E-02 -7.423281E-02  0.000000E+00
        18 -3.330374E-11 -5.567461E-02  0.000000E+00
        19 -3.214626E-11 -3.711640E-02  0.000000E+00
        20 -2.327261E-11 -1.855820E-02  0.000000E+00
        21 -1.855820E-02  3.428362E-11  1.415438E+00
        22 -3.711640E-02  3.308041E-11  1.415438E+00
        23 -5.567461E-02  3.185536E-11  1.415438E+00
        24 -7.423281E-02 -1.855820E-02  1.415438E+00
        25 -7.423281E-02 -3.711640E-02  1.415438E+00
        26 -7.423281E-02 -5.567461E-02  1.415438E+00
        27 -5.567461E-02 -7.423281E-02  1.415438E+00
        28 -3.711640E-02 -7.423281E-02  1.415438E+00
        29 -1.855820E-02 -7.423281E-02  1.415438E+00
        30 -1.007606E-10 -5.567461E-02  1.415438E+00
        31 -1.018557E-10 -3.711640E-02  1.415438E+00
        32 -1.028335E-10 -1.855820E-02  1.415438E+00
        33 -7.423281E-02  1.519038E-11  8.846490E-02
        34 -7.423281E-02  1.532829E-11  1.769298E-01
        35 -7.423281E-02  1.800332E-11  2.653947E-01
        36 -7.423281E-02  1.703230E-11  3.538596E-01
        37 -7.423281E-02  1.921837E-11  4.423245E-01
        38 -7.423281E-02  1.980506E-11  5.307894E-01
        39 -7.423281E-02  2.138890E-11  6.192543E-01
        40 -7.423281E-02  2.212210E-11  7.077192E-01
        41 -7.423281E-02  2.366059E-11  7.961841E-01
        42 -7.423281E-02  2.455946E-11  8.846490E-01
        43 -7.423281E-02  2.591663E-11  9.731139E-01
        44 -7.423281E-02  2.684094E-11  1.061579E+00
        45 -7.423281E-02  2.825950E-11  1.150044E+00
        46 -7.423281E-02  2.915417E-11  1.238509E+00
        47 -7.423281E-02  3.054854E-11  1.326974E+00
        48 -9.798671E-11  3.262846E-11  1.326974E+00
        49 -9.288053E-11  3.122742E-11  1.238509E+00
        50 -8.785083E-11  2.930288E-11  1.150044E+00
        51 -8.269368E-11  2.789721E-11  1.061579E+00
        52 -7.781720E-11  2.603102E-11  9.731139E-01
        53 -7.237040E-11  2.453336E-11  8.846490E-01
        54 -6.765610E-11  2.260518E-11  7.961841E-01
        55 -6.188835E-11  2.118500E-11  7.077192E-01
        56 -5.764482E-11  1.922065E-11  6.192543E-01
        57 -5.136804E-11  1.796399E-11  5.307894E-01
        58 -4.735384E-11  1.535133E-11  4.423245E-01
        59 -3.961721E-11  1.418951E-11  3.538596E-01
        60 -3.906298E-11  1.225022E-11  2.653947E-01
        61 -2.983172E-11  1.267111E-11  1.769298E-01
        62 -2.789021E-11  4.791946E-12  8.846490E-02
        63 -7.423281E-02 -7.423281E-02  8.846490E-02
        64 -7.423281E-02 -7.423281E-02  1.769298E-01
        65 -7.423281E-02 -7.423281E-02  2.653947E-01
        66 -7.423281E-02 -7.423281E-02  3.538596E-01
        67 -7.423281E-02 -7.423281E-02  4.423245E-01
        68 -7.423281E-02 -7.423281E-02  5.307894E-01
        69 -7.423281E-02 -7.423281E-02  6.192543E-01
        70 -7.423281E-02 -7.423281E-02  7.077192E-01
        71 -7.423281E-02 -7.423281E-02  7.961841E-01
        72 -7.423281E-02 -7.423281E-02  8.846490E-01
        73 -7.423281E-02 -7.423281E-02  9.731139E-01
        74 -7.423281E-02 -7.423281E-02  1.061579E+00
        75 -7.423281E-02 -7.423281E-02  1.150044E+00
        76 -7.423281E-02 -7.423281E-02  1.238509E+00
        77 -7.423281E-02 -7.423281E-02  1.326974E+00
        78 -3.592331E-11 -7.423281E-02  8.846490E-02
        79 -3.740591E-11 -7.423281E-02  1.769298E-01
        80 -4.213281E-11 -7.423281E-02  2.653947E-01
        81 -4.559209E-11 -7.423281E-02  3.538596E-01
        82 -5.038530E-11 -7.423281E-02  4.423245E-01
        83 -5.448718E-11 -7.423281E-02  5.307894E-01
        84 -5.923635E-11 -7.423281E-02  6.192543E-01
        85 -6.367041E-11 -7.423281E-02  7.077192E-01
        86 -6.842722E-11 -7.423281E-02  7.961841E-01
        87 -7.291105E-11 -7.423281E-02  8.846490E-01
        88 -7.751716E-11 -7.423281E-02  9.731139E-01
        89 -8.197642E-11 -7.423281E-02  1.061579E+00
        90 -8.665724E-11 -7.423281E-02  1.150044E+00
        91 -9.110406E-11 -7.423281E-02  1.238509E+00
        92 -9.573003E-11 -7.423281E-02  1.326974E+00
        93 -3.711640E-02 -1.855820E-02  0.000000E+00
        94 -1.855820E-02 -3.711640E-02  0.000000E+00
        95 -3.711640E-02 -3.711640E-02  0.000000E+00
        96 -5.567461E-02 -3.711640E-02  0.000000E+00
        97 -3.711640E-02 -5.567461E-02  0.000000E+00
        98 -3.711640E-02 -1.855820E-02  1.415438E+00
        99 -1.855820E-02 -3.711640E-02  1.415438E+00
       100 -3.711640E-02 -3.711640E-02  1.415438E+00
       101 -5.567461E-02 -3.711640E-02  1.415438E+00
       102 -3.711640E-02 -5.567461E-02  1.415438E+00
       103 -3.711640E-02  1.116912E-11  8.846490E-02
       104 -1.855820E-02  1.229367E-11  1.769298E-01
       105 -3.711640E-02  1.399916E-11  1.769298E-01
       106 -5.567461E-02  1.363543E-11  1.769298E-01
       107 -3.711640E-02  1.452455E-11  2.653947E-01
       108 -1.855820E-02  1.541014E-11  3.538596E-01
       109 -3.711640E-02  1.607465E-11  3.538596E-01
       110 -5.567461E-02  1.681024E-11  3.538596E-01
       111 -3.711640E-02  1.737958E-11  4.423245E-01
       112 -1.855820E-02  1.837660E-11  5.307894E-01
       113 -3.711640E-02  1.890162E-11  5.307894E-01
       114 -5.567461E-02  1.929211E-11  5.307894E-01
       115 -3.711640E-02  2.024959E-11  6.192543E-01
       116 -1.855820E-02  2.146320E-11  7.077192E-01
       117 -3.711640E-02  2.172113E-11  7.077192E-01
       118 -5.567461E-02  2.194135E-11  7.077192E-01
       119 -3.711640E-02  2.311108E-11  7.961841E-01
       120 -1.855820E-02  2.453997E-11  8.846490E-01
       121 -3.711640E-02  2.457269E-11  8.846490E-01
       122 -5.567461E-02  2.456101E-11  8.846490E-01
       123 -3.711640E-02  2.595401E-11  9.731139E-01
       124 -1.855820E-02  2.764418E-11  1.061579E+00
       125 -3.711640E-02  2.739690E-11  1.061579E+00
       126 -5.567461E-02  2.712514E-11  1.061579E+00
       127 -3.711640E-02  2.877301E-11  1.150044E+00
       128 -1.855820E-02  3.072824E-11  1.238509E+00
       129 -3.711640E-02  3.021579E-11  1.238509E+00
       130 -5.567461E-02  2.968561E-11  1.238509E+00
       131 -3.711640E-02  3.159141E-11  1.326974E+00
       132 -7.423281E-02 -3.711640E-02  8.846490E-02
       133 -7.423281E-02 -1.855820E-02  1.769298E-01
       134 -7.423281E-02 -3.711640E-02  1.769298E-01
       135 -7.423281E-02 -5.567461E-02  1.769298E-01
       136 -7.423281E-02 -3.711640E-02  2.653947E-01
       137 -7.423281E-02 -1.855820E-02  3.538596E-01
       138 -7.423281E-02 -3.711640E-02  3.538596E-01
       139 -7.423281E-02 -5.567461E-02  3.538596E-01
       140 -7.423281E-02 -3.711640E-02  4.423245E-01
       141 -7.423281E-02 -1.855820E-02  5.307894E-01
       142 -7.423281E-02 -3.711640E-02  5.307894E-01
       143 -7.423281E-02 -5.567461E-02  5.307894E-01
       144 -7.423281E-02 -3.711640E-02  6.192543E-01
       145 -7.423281E-02 -1.855820E-02  7.077192E-01
       146 -7.423281E-02 -3.711640E-02  7.077192E-01
       147 -7.423281E-02 -5.567461E-02  7.077192E-01
       148 -7.423281E-02 -3.711640E-02  7.961841E-01
       149 -7.423281E-02 -1.855820E-02  8.846490E-01
       150 -7.423281E-02 -3.711640E-02  8.846490E-01
       151 -7.423281E-02 -5.567461E-02  8.846490E-01
       152 -7.423281E-02 -3.711640E-02  9.731139E-01
       153 -7.423281E-02 -1.855820E-02  1.061579E+00
       154 -7.423281E-02 -3.711640E-02  1.061579E+00
       155 -7.423281E-02 -5.567461E-02  1.061579E+00
       156 -7.423281E-02 -3.711640E-02  1.150044E+00
       157 -7.423281E-02 -1.855820E-02  1.238509E+00
       158 -7.423281E-02 -3.711640E-02  1.238509E+00
       159 -7.423281E-02 -5.567461E-02  1.238509E+00
       160 -7.423281E-02 -3.711640E-02  1.326974E+00
       161 -3.711640E-02 -7.423281E-02  8.846490E-02
       162 -5.567461E-02 -7.423281E-02  1.769298E-01
       163 -3.711640E-02 -7.423281E-02  1.769298E-01
       164 -1.855820E-02 -7.423281E-02  1.769298E-01
       165 -3.711640E-02 -7.423281E-02  2.653947E-01
       166 -5.567461E-02 -7.423281E-02  3.538596E-01
       167 -3.711640E-02 -7.423281E-02  3.538596E-01
       168 -1.855820E-02 -7.423281E-02  3.538596E-01
       169 -3.711640E-02 -7.423281E-02  4.423245E-01
       170 -5.567461E-02 -7.423281E-02  5.307894E-01
       171 -3.711640E-02 -7.423281E-02  5.307894E-01
       172 -1.855820E-02 -7.423281E-02  5.307894E-01
       173 -3.711640E-02 -7.423281E-02  6.192543E-01
       174 -5.567461E-02 -7.423281E-02  7.077192E-01
       175 -3.711640E-02 -7.423281E-02  7.077192E-01
       176 -1.855820E-02 -7.423281E-02  7.077192E-01
       177 -3.711640E-02 -7.423281E-02  7.961841E-01
       178 -5.567461E-02 -7.423281E-02  8.846490E-01
       179 -3.711640E-02 -7.423281E-02  8.846490E-01
       180 -1.855820E-02 -7.423281E-02  8.846490E-01
       181 -3.711640E-02 -7.423281E-02  9.731139E-01
       182 -5.567461E-02 -7.423281E-02  1.061579E+00
       183 -3.711640E-02 -7.423281E-02  1.061579E+00
       184 -1.855820E-02 -7.423281E-02  1.061579E+00
       185 -3.711640E-02 -7.423281E-02  1.150044E+00
       186 -5.567461E-02 -7.423281E-02  1.238509E+00
       187 -3.711640E-02 -7.423281E-02  1.238509E+00
       188 -1.855820E-02 -7.423281E-02  1.238509E+00
       189 -3.711640E-02 -7.423281E-02  1.326974E+00
       190 -3.031332E-11 -3.711640E-02  8.846490E-02
       191 -3.728338E-11 -5.567461E-02  1.769298E-01
       192 -3.743181E-11 -3.711640E-02  1.769298E-01
       193 -3.180832E-11 -1.855820E-02  1.769298E-01
       194 -3.920388E-11 -3.711640E-02  2.653947E-01
       195 -4.516798E-11 -5.567461E-02  3.538596E-01
       196 -4.458818E-11 -3.711640E-02  3.538596E-01
       197 -4.258515E-11 -1.855820E-02  3.538596E-01
       198 -4.844693E-11 -3.711640E-02  4.423245E-01
       199 -5.412140E-11 -5.567461E-02  5.307894E-01
       200 -5.375540E-11 -3.711640E-02  5.307894E-01
       201 -5.245509E-11 -1.855820E-02  5.307894E-01
       202 -5.814871E-11 -3.711640E-02  6.192543E-01
       203 -6.346171E-11 -5.567461E-02  7.077192E-01
       204 -6.323945E-11 -3.711640E-02  7.077192E-01
       205 -6.258749E-11 -1.855820E-02  7.077192E-01
       206 -6.787408E-11 -3.711640E-02  7.961841E-01
       207 -7.287965E-11 -5.567461E-02  8.846490E-01
       208 -7.287829E-11 -3.711640E-02  8.846490E-01
       209 -7.260705E-11 -1.855820E-02  8.846490E-01
       210 -7.756368E-11 -3.711640E-02  9.731139E-01
       211 -8.224514E-11 -5.567461E-02  1.061579E+00
       212 -8.249610E-11 -3.711640E-02  1.061579E+00
       213 -8.259142E-11 -1.855820E-02  1.061579E+00
       214 -8.719844E-11 -3.711640E-02  1.150044E+00
       215 -9.161636E-11 -5.567461E-02  1.238509E+00
       216 -9.211828E-11 -3.711640E-02  1.238509E+00
       217 -9.251154E-11 -1.855820E-02  1.238509E+00
       218 -9.683231E-11 -3.711640E-02  1.326974E+00
       219 -3.711640E-02 -3.711640E-02  8.846490E-02
       220 -3.711640E-02 -1.855820E-02  1.769298E-01
       221 -1.855820E-02 -3.711640E-02  1.769298E-01
       222 -3.711640E-02 -3.711640E-02  1.769298E-01
       223 -5.567461E-02 -3.711640E-02  1.769298E-01
       224 -3.711640E-02 -5.567461E-02  1.769298E-01
       225 -3.711640E-02 -3.711640E-02  2.653947E-01
       226 -3.711640E-02 -1.855820E-02  3.538596E-01
       227 -1.855820E-02 -3.711640E-02  3.538596E-01
       228 -3.711640E-02 -3.711640E-02  3.538596E-01
       229 -5.567461E-02 -3.711640E-02  3.538596E-01
       230 -3.711640E-02 -5.567461E-02  3.538596E-01
       231 -3.711640E-02 -3.711640E-02  4.423245E-01
       232 -3.711640E-02 -1.855820E-02  5.307894E-01
       233 -1.855820E-02 -3.711640E-02  5.307894E-01
       234 -3.711640E-02 -3.711640E-02  5.307894E-01
       235 -5.567461E-02 -3.711640E-02  5.307894E-01
       236 -3.711640E-02 -5.567461E-02  5.307894E-01
       237 -3.711640E-02 -3.711640E-02  6.192543E-01
       238 -3.711640E-02 -1.855820E-02  7.077192E-01
       239 -1.855820E-02 -3.711640E-02  7.077192E-01
       240 -3.711640E-02 -3.711640E-02  7.077192E-01
       241 -5.567461E-02 -3.711640E-02  7.077192E-01
       242 -3.711640E-02 -5.567461E-02  7.077192E-01
       243 -3.711640E-02 -3.711640E-02  7.961841E-01
       244 -3.711640E-02 -1.855820E-02  8.846490E-01
       245 -1.855820E-02 -3.711640E-02  8.846490E-01
       246 -3.711640E-02 -3.711640E-02  8.846490E-01
       247 -5.567461E-02 -3.711640E-02  8.846490E-01
       248 -3.711640E-02 -5.567461E-02  8.846490E-01
       249 -3.711640E-02 -3.711640E-02  9.731139E-01
       250 -3.711640E-02 -1.855820E-02  1.061579E+00
       251 -1.855820E-02 -3.711640E-02  1.061579E+00
       252 -3.711640E-02 -3.711640E-02  1.061579E+00
       253 -5.567461E-02 -3.711640E-02  1.061579E+00
       254 -3.711640E-02 -5.567461E-02  1.061579E+00
       255 -3.711640E-02 -3.711640E-02  1.150044E+00
       256 -3.711640E-02 -1.855820E-02  1.238509E+00
       257 -1.855820E-02 -3.711640E-02  1.238509E+00
       258 -3.711640E-02 -3.711640E-02  1.238509E+00
       259 -5.567461E-02 -3.711640E-02  1.238509E+00
       260 -3.711640E-02 -5.567461E-02  1.238509E+00
       261 -3.711640E-02 -3.711640E-02  1.326974E+00

 forces (fx,fy,fz) for set NALL and time  0.1000000E+01

         1 -1.154490E-05 -1.154492E-05  3.578113E-02
         2  1.154492E-05 -1.154493E-05  3.578113E-02
         3  1.154492E-05  1.154492E-05  3.578113E-02
         4 -1.154492E-05  1.154492E-05  3.578113E-02
         5 -1.154492E-05 -1.154492E-05 -3.578113E-02
         6  1.154492E-05 -1.154492E-05 -3.578113E-02
         7  1.154492E-05  1.154492E-05 -3.578113E-02
         8 -1.154492E-05  1.154492E-05 -3.578113E-02
         9  5.349277E-14  4.617967E-05 -1.431245E-01
        10 -1.246514E-13 -2.308984E-05  7.156226E-02
        11  6.305976E-14  4.617967E-05 -1.431245E-01
        12 -4.617967E-05 -6.492322E-14 -1.431245E-01
        13  2.308984E-05  6.382286E-14  7.156226E-02
        14 -4.617967E-05 -4.101731E-14 -1.431245E-01
        15  1.017917E-13 -4.617967E-05 -1.431245E-01
        16 -1.531952E-13  2.308984E-05  7.156226E-02
        17  1.199343E-13 -4.617967E-05 -1.431245E-01
        18  4.617967E-05 -8.910687E-15 -1.431245E-01
        19 -2.308984E-05  2.129784E-14  7.156226E-02
        20  4.617967E-05  1.289524E-14 -1.431245E-01
        21 -1.418660E-12  4.617968E-05  1.431245E-01
        22  9.688814E-13 -2.308984E-05 -7.156226E-02
        23 -1.214916E-12  4.617967E-05  1.431245E-01
        24 -4.617968E-05 -1.217816E-14  1.431245E-01
        25  2.308984E-05 -4.515624E-14 -7.156226E-02
        26 -4.617968E-05  4.174106E-13  1.431245E-01
        27 -1.127651E-12 -4.617967E-05  1.431245E-01
        28  5.564171E-13  2.308984E-05 -7.156226E-02
        29 -9.399775E-13 -4.617967E-05  1.431245E-01
        30  4.617967E-05  2.710527E-13  1.431245E-01
        31 -2.308984E-05 -4.587936E-13 -7.156226E-02
        32  4.617967E-05  7.038012E-13  1.431245E-01
        33 -4.617967E-05  4.617967E-05 -3.924248E-14
        34  2.308984E-05 -2.308984E-05  4.303372E-14
        35 -4.617967E-05  4.617967E-05 -6.782942E-14
        36  2.308984E-05 -2.308984E-05  4.026597E-14
        37 -4.617967E-05  4.617967E-05 -3.517586E-14
        38  2.308984E-05 -2.308984E-05 -8.422516E-15
        39 -4.617967E-05  4.617967E-05  2.548959E-14
        40  2.308984E-05 -2.308984E-05 -2.787180E-14
        41 -4.617967E-05  4.617967E-05  3.566158E-15
        42  2.308984E-05 -2.308984E-05  1.681814E-14
        43 -4.617967E-05  4.617967E-05 -5.753557E-14
        44  2.308984E-05 -2.308984E-05  4.565836E-14
        45 -4.617967E-05  4.617967E-05 -5.681870E-14
        46  2.308984E-05 -2.308984E-05  1.417876E-14
        47 -4.617967E-05  4.617967E-05  1.048293E-14
        48  4.617967E-05  4.617967E-05 -5.637309E-15
        49 -2.308984E-05 -2.308984E-05  1.808449E-16
        50  4.617967E-05  4.617967E-05  1.711131E-14
        51 -2.308984E-05 -2.308984E-05 -1.724055E-14
        52  4.617967E-05  4.617967E-05  2.473737E-14
        53 -2.308984E-05 -2.308984E-05 -5.972002E-15
        54  4.617967E-05  4.617967E-05 -3.664820E-15
        55 -2.308984E-05 -2.308984E-05  1.320341E-14
        56  4.617967E-05  4.617967E-05 -1.189283E-14
        57 -2.308984E-05 -2.308984E-05  6.651580E-15
        58  4.617967E-05  4.617967E-05  9.533823E-15
        59 -2.308984E-05 -2.308984E-05 -7.549083E-15
        60  4.617967E-05  4.617967E-05  1.768637E-14
        61 -2.308984E-05 -2.308984E-05 -2.651525E-15
        62  4.617967E-05  4.617967E-05 -3.535692E-15
        63 -4.617967E-05 -4.617967E-05 -1.353431E-14
        64  2.308984E-05  2.308984E-05  2.178552E-14
        65 -4.617967E-05 -4.617967E-05 -3.442385E-14
        66  2.308984E-05  2.308984E-05  2.239528E-14
        67 -4.617967E-05 -4.617967E-05 -2.107169E-14
        68  2.308984E-05  2.308984E-05  3.135513E-15
        69 -4.617967E-05 -4.617967E-05  3.077399E-15
        70  2.308984E-05  2.308984E-05 -7.693499E-15
        71 -4.617967E-05 -4.617967E-05  7.320533E-16
        72  2.308984E-05  2.308984E-05  8.119373E-15
        73 -4.617967E-05 -4.617967E-05 -2.538594E-14
        74  2.308984E-05  2.308984E-05  1.672187E-14
        75 -4.617967E-05 -4.617967E-05 -1.685978E-14
        76  2.308984E-05  2.308984E-05  7.407269E-15
        77 -4.617967E-05 -4.617967E-05 -1.632375E-15
        78  4.617967E-05 -4.617967E-05  3.530683E-14
        79 -2.308984E-05  2.308984E-05 -4.484781E-14
        80  4.617967E-05 -4.617967E-05  7.456102E-14
        81 -2.308984E-05  2.308984E-05 -4.763290E-14
        82  4.617967E-05 -4.617967E-05  4.348301E-14
        83 -2.308984E-05  2.308984E-05 -8.469787E-16
        84  4.617967E-05 -4.617967E-05 -1.634673E-14
        85 -2.308984E-05  2.308984E-05  2.276781E-14
        86  4.617967E-05 -4.617967E-05 -4.021089E-15
        87 -2.308984E-05  2.308984E-05 -1.850213E-14
        88  4.617967E-05 -4.617967E-05  6.276230E-14
        89 -2.308984E-05  2.308984E-05 -4.845950E-14
        90  4.617967E-05 -4.617967E-05  4.946260E-14
        91 -2.308984E-05  2.308984E-05 -1.006313E-14
        92  4.617967E-05 -4.617967E-05 -1.050809E-14
        93  1.850486E-13 -7.691622E-14 -2.862490E-01
        94  2.125389E-13 -7.749599E-14 -2.862490E-01
        95 -2.902466E-13  8.674748E-14  1.431245E-01
        96  1.959099E-13 -6.894417E-14 -2.862490E-01
        97  1.936935E-13 -6.325554E-14 -2.862490E-01
        98 -2.174881E-12  7.772130E-13  2.862490E-01
        99 -2.556650E-12  6.093868E-13  2.862490E-01
       100  1.373202E-12 -4.202018E-13 -1.431245E-01
       101 -2.552119E-12  6.066307E-13  2.862490E-01
       102 -2.178312E-12  7.633095E-13  2.862490E-01
       103  1.186745E-13  9.235935E-05 -7.778066E-14
       104  3.336574E-14  9.235935E-05  9.709898E-15
       105 -1.414000E-13 -4.617967E-05  6.732744E-14
       106  4.517175E-14  9.235935E-05 -5.992104E-14
       107 -4.564728E-14  9.235935E-05 -6.631403E-14
       108 -6.977179E-14  9.235935E-05 -2.374034E-14
       109  9.703099E-14 -4.617967E-05  4.031107E-14
       110 -7.530761E-14  9.235935E-05 -5.869090E-14
       111 -9.604268E-14  9.235935E-05 -2.655395E-14
       112 -1.231119E-13  9.235935E-05 -7.880198E-15
       113  1.595675E-13 -4.617967E-05 -7.324870E-16
       114 -1.344567E-13  9.235935E-05 -5.418409E-15
       115 -1.113527E-13  9.235935E-05  1.261101E-14
       116 -4.941651E-15  9.235935E-05 -2.861665E-14
       117 -1.329917E-14 -4.617967E-05 -1.648941E-14
       118  9.969550E-15  9.235935E-05  5.268702E-14
       119  1.033884E-13  9.235935E-05  6.417393E-16
       120  8.041475E-14  9.235935E-05 -5.237564E-15
       121 -1.190535E-13 -4.617967E-05  1.076548E-14
       122  9.990957E-14  9.235935E-05 -3.532851E-14
       123  1.793458E-14  9.235935E-05 -3.285946E-14
       124 -1.768228E-14  9.235935E-05 -2.049402E-14
       125  1.351829E-14 -4.617967E-05  2.706212E-14
       126 -1.833592E-14  9.235935E-05 -5.597627E-14
       127 -3.790752E-14  9.235935E-05 -3.617744E-14
       128 -5.591772E-14  9.235935E-05 -1.364317E-14
       129  1.308451E-13 -4.617967E-05  8.761438E-15
       130 -6.168101E-14  9.235935E-05 -1.488002E-14
       131 -4.076026E-14  9.235935E-05  5.769257E-15
       132 -9.235935E-05 -1.149942E-13 -2.978607E-14
       133 -9.235935E-05 -1.168177E-13 -1.026011E-13
       134  4.617967E-05  8.550127E-14  5.024453E-14
       135 -9.235935E-05 -1.040187E-13 -8.942760E-14
       136 -9.235935E-05 -8.048050E-14 -9.602041E-14
       137 -9.235935E-05 -1.538475E-14 -1.172144E-13
       138  4.617967E-05  7.096249E-15  5.937828E-14
       139 -9.235935E-05 -1.472160E-14 -7.372315E-14
       140 -9.235935E-05  4.166895E-14 -5.568029E-14
       141 -9.235935E-05  1.483344E-14 -8.786374E-16
       142  4.617967E-05 -4.186234E-14 -3.881444E-15
       143 -9.235935E-05 -1.243802E-15 -2.366336E-14
       144 -9.235935E-05 -3.076730E-14  2.632790E-14
       145 -9.235935E-05 -2.658260E-14  3.021975E-14
       146  4.617967E-05  2.171926E-14 -3.459689E-14
       147 -9.235935E-05 -2.539728E-14  2.485338E-14
       148 -9.235935E-05 -8.782087E-15  3.734860E-15
       149 -9.235935E-05 -3.639124E-14 -3.863229E-14
       150  4.617967E-05  5.857670E-14  2.741297E-14
       151 -9.235935E-05 -2.860581E-14 -4.691646E-14
       152 -9.235935E-05 -4.731944E-14 -8.800079E-14
       153 -9.235935E-05 -9.392086E-15 -1.074358E-13
       154  4.617967E-05 -1.309307E-14  6.157531E-14
       155 -9.235935E-05  7.756080E-16 -7.215062E-14
       156 -9.235935E-05  5.756784E-14 -6.690698E-14
       157 -9.235935E-05  6.945732E-14 -2.836793E-14
       158  4.617967E-05 -4.853909E-14  1.357074E-14
       159 -9.235935E-05  5.846002E-14 -3.175238E-14
       160 -9.235935E-05  4.702357E-14  1.211791E-14
       161  2.136630E-13 -9.235935E-05  1.237465E-14
       162  1.648460E-13 -9.235935E-05 -2.223048E-15
       163 -1.779563E-13  4.617967E-05 -1.783990E-14
       164  1.680409E-13 -9.235935E-05  5.272085E-14
       165  8.995934E-14 -9.235935E-05  3.898401E-14
       166 -1.442313E-14 -9.235935E-05  2.353152E-15
       167  4.510149E-14  4.617967E-05 -2.809992E-14
       168 -2.328614E-14 -9.235935E-05  7.511179E-14
       169 -9.915864E-14 -9.235935E-05  2.664839E-14
       170 -4.886018E-14 -9.235935E-05  2.591677E-14
       171  1.219310E-13  4.617967E-05 -2.343178E-15
       172 -6.776957E-14 -9.235935E-05 -1.125749E-14
       173  5.969043E-15 -9.235935E-05 -1.102504E-14
       174  2.418843E-14 -9.235935E-05  3.688889E-15
       175 -2.462731E-14  4.617967E-05  1.450793E-14
       176  2.108085E-14 -9.235935E-05 -2.567217E-14
       177  3.941173E-14 -9.235935E-05 -3.233525E-15
       178  8.194073E-14 -9.235935E-05  2.510318E-14
       179 -1.283314E-13  4.617967E-05 -1.077567E-14
       180  8.107086E-14 -9.235935E-05  1.390554E-14
       181  8.561711E-14 -9.235935E-05  3.777577E-14
       182 -1.253408E-14 -9.235935E-05  4.211041E-15
       183  3.499990E-14  4.617967E-05 -2.973836E-14
       184 -2.118042E-14 -9.235935E-05  7.870440E-14
       185 -1.062549E-13 -9.235935E-05  3.686808E-14
       186 -1.130227E-13 -9.235935E-05  1.477204E-14
       187  1.278997E-13  4.617967E-05 -7.034304E-15
       188 -1.114029E-13 -9.235935E-05  7.726458E-15
       189 -8.757596E-14 -9.235935E-05 -9.095155E-15
       190  9.235935E-05  1.983675E-14  5.679398E-14
       191  9.235935E-05  1.508566E-14  9.782648E-14
       192 -4.617967E-05  3.355475E-14 -7.478848E-14
       193  9.235935E-05  5.014022E-14  8.814802E-14
       194  9.235935E-05  4.450231E-14  1.161778E-13
       195  9.235935E-05  3.888463E-14  9.774148E-14
       196 -4.617967E-05 -3.433425E-14 -7.104885E-14
       197  9.235935E-05  3.471525E-14  9.388085E-14
       198  9.235935E-05  2.622160E-14  6.249873E-14
       199  9.235935E-05  7.521450E-14  1.952778E-14
       200 -4.617967E-05 -6.326240E-14  1.053845E-16
       201  9.235935E-05  5.692464E-14  7.945901E-15
       202  9.235935E-05  7.147595E-14 -2.847765E-14
       203  9.235935E-05  1.192157E-14 -4.934920E-14
       204 -4.617967E-05  4.520528E-15  3.385443E-14
       205  9.235935E-05  3.971442E-15 -2.255574E-15
       206  9.235935E-05 -6.774920E-14 -3.787986E-15
       207  9.235935E-05 -5.199301E-14  5.291839E-14
       208 -4.617967E-05  5.089932E-14 -2.588403E-14
       209  9.235935E-05 -2.836085E-14  2.953887E-14
       210  9.235935E-05  1.484799E-15  8.724271E-14
       211  9.235935E-05  1.404633E-14  9.570903E-14
       212 -4.617967E-05  4.458853E-15 -6.716069E-14
       213  9.235935E-05  1.669169E-15  8.299481E-14
       214  9.235935E-05  4.370633E-15  7.263710E-14
       215  9.235935E-05  2.112819E-14  2.850628E-14
       216 -4.617967E-05 -6.238136E-14 -1.378823E-14
       217  9.235935E-05  3.596948E-15  2.722150E-14
       218  9.235935E-05  3.592193E-15 -1.177205E-14
       219  3.762403E-13 -9.871240E-14 -1.331335E-14
       220  2.388836E-13 -5.759689E-14 -9.118574E-15
       221  2.321988E-13 -7.341627E-14  5.890102E-14
       222 -3.389339E-13  1.178204E-13  5.833008E-15
       223  2.600732E-13 -8.099476E-14 -7.047314E-14
       224  2.314578E-13 -9.932634E-14  9.842387E-15
       225  5.439670E-14 -5.741376E-14  2.731973E-15
       226 -1.128338E-13  3.081570E-14 -2.974856E-14
       227 -1.203799E-13  2.420022E-14  5.937416E-14
       228  1.584050E-13 -2.571048E-14 -1.658612E-15
       229 -1.340206E-13  3.259136E-14 -5.899252E-14
       230 -1.043422E-13  2.174072E-14  2.565266E-14
       231 -2.431054E-13  8.298787E-14  2.724708E-15
       232 -2.159438E-13  8.516937E-14  6.858229E-15
       233 -2.412240E-13  7.737596E-14 -2.227754E-14
       234  3.059563E-13 -1.048731E-13 -3.511297E-15
       235 -2.390230E-13  8.400793E-14  2.432364E-14
       236 -2.092149E-13  8.213314E-14 -6.683456E-15
       237 -1.244450E-13  4.711731E-14  5.413421E-16
       238  3.926354E-14 -2.650501E-14  2.759620E-14
       239  4.085911E-14 -2.265492E-14 -5.745556E-14
       240 -4.931566E-14  3.678056E-14 -2.625287E-15
       241  4.602248E-14 -2.627138E-14  6.470562E-14
       242  3.606426E-14 -2.992179E-14 -2.330731E-14
       243  1.835233E-13 -8.557029E-14  2.402375E-15
       244  1.839083E-13 -7.594957E-14 -7.182406E-15
       245  2.108495E-13 -9.322013E-14  9.386372E-15
       246 -2.653446E-13  1.132623E-13 -1.241195E-15
       247  2.226396E-13 -8.507731E-14 -1.424642E-14
       248  1.921764E-13 -1.007630E-13  3.145054E-15
       249  1.252769E-13 -6.352659E-14 -1.136678E-15
       250 -2.742644E-14 -2.773407E-15 -2.324248E-14
       251 -4.216544E-14  7.431772E-15  5.934771E-14
       252  4.382681E-14 -1.351505E-14 -2.441406E-15
       253 -3.356442E-14  5.656856E-15 -5.645853E-14
       254 -2.952200E-14  2.055650E-14  3.049709E-14
       255 -1.711277E-13  7.504958E-14  2.689255E-15
       256 -2.022162E-13  1.017248E-13 -6.215081E-15
       257 -2.572400E-13  8.804669E-14  4.119968E-17
       258  3.119756E-13 -1.446402E-13  2.147371E-15
       259 -2.375074E-13  9.127394E-14 -3.935654E-15
       260 -1.987420E-13  1.333284E-13 -4.186321E-15
       261 -1.810968E-13  7.934720E-14  4.498572E-15

 stresses (elem, integ.pnt.,sxx,syy,szz,sxy,sxz,syz) for set EALL and time  0.1000000E+01

         1   1 -2.543022E-04 -2.543020E-04  2.003972E+00 -5.978059E-11 -1.329218E-10 -2.741319E-12
         1   2 -2.543021E-04 -2.543021E-04  2.003972E+00 -3.950861E-11 -4.143041E-11 -2.026168E-11
         1   3 -2.543020E-04 -2.543020E-04  2.003972E+00  1.554500E-11 -4.676009E-12 -4.748182E-12
         1   4 -2.543019E-04 -2.543020E-04  2.003972E+00 -9.184554E-12 -1.007832E-11 -1.101565E-11
         1   5 -2.543019E-04 -2.543020E-04  2.003972E+00  1.337770E-11  2.480569E-11  2.290377E-11
         1   6 -2.543019E-04 -2.543019E-04  2.003972E+00  3.126873E-12 -2.101409E-11  5.830307E-12
         1   7 -2.543020E-04 -2.543020E-04  2.003972E+00  1.424105E-11 -8.537357E-12  1.086863E-11
         1   8 -2.543020E-04 -2.543020E-04  2.003972E+00  3.702755E-12 -1.714976E-11  6.714096E-13
         2   1 -2.543020E-04 -2.543020E-04  2.003972E+00  1.390456E-11 -1.523113E-11  4.823749E-13
         2   2 -2.543020E-04 -2.543019E-04  2.003972E+00 -2.641671E-11  4.940984E-12  7.210881E-11
         2   3 -2.543020E-04 -2.543021E-04  2.003972E+00 -3.557919E-11 -1.931019E-11 -4.130904E-12
         2   4 -2.543020E-04 -2.543019E-04  2.003972E+00 -2.592198E-11 -1.398695E-11  1.901812E-11
         2   5 -2.543020E-04 -2.543020E-04  2.003972E+00  7.565017E-12 -3.936154E-11 -4.709638E-12
         2   6 -2.543020E-04 -2.543020E-04  2.003972E+00  4.477254E-12 -2.304391E-11 -1.948819E-11
         2   7 -2.543020E-04 -2.543020E-04  2.003972E+00 -3.022935E-13 -2.665554E-11 -1.093569E-12
         2   8 -2.543020E-04 -2.543020E-04  2.003972E+00 -2.972746E-12 -2.414806E-11  1.864689E-12
         3   1 -2.543020E-04 -2.543020E-04  2.003972E+00 -1.045486E-11  1.490083E-11  7.590163E-12
         3   2 -2.543020E-04 -2.543020E-04  2.003972E+00  8.706124E-12 -3.037597E-12  3.276579E-12
         3   3 -2.543020E-04 -2.543020E-04  2.003972E+00  7.676703E-12 -8.204045E-12  4.296853E-12
         3   4 -2.543020E-04 -2.543020E-04  2.003972E+00 -9.203585E-12 -5.279686E-12  2.666796E-12
         3   5 -2.543020E-04 -2.543020E-04  2.003972E+00 -2.428890E-12 -3.166975E-11  1.102936E-11