
 displacements (vx,vy,vz) for set NALL and time  0.1000000E+01

         1  0.000000E+00  0.000000E+00  0.000000E+00
         2  0.000000E+00  0.000000E+00  0.000000E+00
         3  0.000000E+00  0.000000E+00  0.000000E+00
         4  0.000000E+00  0.000000E+00  0.000000E+00
         5  7.137597E-05  7.137597E-05  3.788307E-03
         6 -7.137597E-05  7.137597E-05  3.788307E-03
         7 -7.137597E-05 -7.137597E-05  3.788307E-03
         8  7.137597E-05 -7.137597E-05  3.788307E-03
         9  0.000000E+00  0.000000E+00  0.000000E+00
        10  0.000000E+00  0.000000E+00  0.000000E+00
        11  0.000000E+00  0.000000E+00  0.000000E+00
        12  0.000000E+00  0.000000E+00  0.000000E+00
        13  0.000000E+00  0.000000E+00  0.000000E+00
        14  0.000000E+00  0.000000E+00  0.000000E+00
        15  0.000000E+00  0.000000E+00  0.000000E+00
        16  0.000000E+00  0.000000E+00  0.000000E+00
        17  0.000000E+00  0.000000E+00  0.000000E+00
        18  0.000000E+00  0.000000E+00  0.000000E+00
        19  0.000000E+00  0.000000E+00  0.000000E+00
        20  0.000000E+00  0.000000E+00  0.000000E+00
        21  3.568806E-05  7.137893E-05  3.788311E-03
        22  1.202831E-15  7.138202E-05  3.788313E-03
        23 -3.568806E-05  7.137893E-05  3.788311E-03
        24 -7.137893E-05  3.568806E-05  3.788311E-03
        25 -7.138202E-05  4.527791E-16  3.788313E-03
        26 -7.137893E-05 -3.568806E-05  3.788311E-03
        27 -3.568806E-05 -7.137893E-05  3.788311E-03
        28  1.175322E-15 -7.138202E-05  3.788313E-03
        29  3.568806E-05 -7.137893E-05  3.788311E-03
        30  7.137893E-05 -3.568806E-05  3.788311E-03
        31  7.138202E-05  4.267199E-16  3.788313E-03
        32  7.137893E-05  3.568806E-05  3.788311E-03
        33 -7.920565E-05  7.920565E-05  2.297369E-04
        34 -5.941961E-05  5.941961E-05  4.567584E-04
        35 -7.285893E-05  7.285893E-05  6.972553E-04
        36 -6.904440E-05  6.904440E-05  9.331173E-04
        37 -7.168101E-05  7.168101E-05  1.172082E-03
        38 -7.085023E-05  7.085023E-05  1.409668E-03
        39 -7.148927E-05  7.148927E-05  1.647623E-03
        40 -7.123351E-05  7.123351E-05  1.885395E-03
        41 -7.140560E-05  7.140560E-05  2.123321E-03
        42 -7.133942E-05  7.133942E-05  2.361162E-03
        43 -7.138873E-05  7.138873E-05  2.599026E-03
        44 -7.136734E-05  7.136734E-05  2.836876E-03
        45 -7.138171E-05  7.138171E-05  3.074740E-03
        46 -7.137524E-05  7.137524E-05  3.312596E-03
        47 -7.138074E-05  7.138074E-05  3.550453E-03
        48  7.138074E-05  7.138074E-05  3.550453E-03
        49  7.137524E-05  7.137524E-05  3.312596E-03
        50  7.138171E-05  7.138171E-05  3.074740E-03
        51  7.136734E-05  7.136734E-05  2.836876E-03
        52  7.138873E-05  7.138873E-05  2.599026E-03
        53  7.133942E-05  7.133942E-05  2.361162E-03
        54  7.140560E-05  7.140560E-05  2.123321E-03
        55  7.123351E-05  7.123351E-05  1.885395E-03
        56  7.148927E-05  7.148927E-05  1.647623E-03
        57  7.085023E-05  7.085023E-05  1.409668E-03
        58  7.168101E-05  7.168101E-05  1.172082E-03
        59  6.904440E-05  6.904440E-05  9.331173E-04
        60  7.285893E-05  7.285893E-05  6.972553E-04
        61  5.941961E-05  5.941961E-05  4.567584E-04
        62  7.920565E-05  7.920565E-05  2.297369E-04
        63 -7.920565E-05 -7.920565E-05  2.297369E-04
        64 -5.941961E-05 -5.941961E-05  4.567584E-04
        65 -7.285893E-05 -7.285893E-05  6.972553E-04
        66 -6.904440E-05 -6.904440E-05  9.331173E-04
        67 -7.168101E-05 -7.168101E-05  1.172082E-03
        68 -7.085023E-05 -7.085023E-05  1.409668E-03
        69 -7.148927E-05 -7.148927E-05  1.647623E-03
        70 -7.123351E-05 -7.123351E-05  1.885395E-03
        71 -7.140560E-05 -7.140560E-05  2.123321E-03
        72 -7.133942E-05 -7.133942E-05  2.361162E-03
        73 -7.138873E-05 -7.138873E-05  2.599026E-03
        74 -7.136734E-05 -7.136734E-05  2.836876E-03
        75 -7.138171E-05 -7.138171E-05  3.074740E-03
        76 -7.137524E-05 -7.137524E-05  3.312596E-03
        77 -7.138074E-05 -7.138074E-05  3.550453E-03
        78  7.920565E-05 -7.920565E-05  2.297369E-04
        79  5.941961E-05 -5.941961E-05  4.567584E-04
        80  7.285893E-05 -7.285893E-05  6.972553E-04
        81  6.904440E-05 -6.904440E-05  9.331173E-04
        82  7.168101E-05 -7.168101E-05  1.172082E-03
        83  7.085023E-05 -7.085023E-05  1.409668E-03
        84  7.148927E-05 -7.148927E-05  1.647623E-03
        85  7.123351E-05 -7.123351E-05  1.885395E-03
        86  7.140560E-05 -7.140560E-05  2.123321E-03
        87  7.133942E-05 -7.133942E-05  2.361162E-03
        88  7.138873E-05 -7.138873E-05  2.599026E-03
        89  7.136734E-05 -7.136734E-05  2.836876E-03
        90  7.138171E-05 -7.138171E-05  3.074740E-03
        91  7.137524E-05 -7.137524E-05  3.312596E-03
        92  7.138074E-05 -7.138074E-05  3.550453E-03
        93  0.000000E+00  0.000000E+00  0.000000E+00
        94  0.000000E+00  0.000000E+00  0.000000E+00
        95  0.000000E+00  0.000000E+00  0.000000E+00
        96  0.000000E+00  0.000000E+00  0.000000E+00
        97  0.000000E+00  0.000000E+00  0.000000E+00
        98  1.195712E-15  3.569073E-05  3.788311E-03
        99  3.569073E-05  4.325069E-16  3.788311E-03
       100  1.188598E-15  4.384561E-16  3.788310E-03
       101 -3.569073E-05  4.455564E-16  3.788311E-03
       102  1.181822E-15 -3.569073E-05  3.788311E-03
       103  5.648496E-18  7.927484E-05  2.182011E-04
       104  2.993532E-05  6.072163E-05  4.586495E-04
       105  2.758324E-17  6.228657E-05  4.619449E-04
       106 -2.993532E-05  6.072163E-05  4.586495E-04
       107  6.080651E-17  7.158131E-05  6.962506E-04
       108  3.438729E-05  7.002654E-05  9.338924E-04
       109  1.068348E-16  7.095492E-05  9.345123E-04
       110 -3.438729E-05  7.002654E-05  9.338924E-04
       111  1.622842E-16  7.116221E-05  1.171747E-03
       112  3.545003E-05  7.120947E-05  1.409757E-03
       113  2.276094E-16  7.158932E-05  1.409931E-03
       114 -3.545003E-05  7.120947E-05  1.409757E-03
       115  3.012057E-16  7.130920E-05  1.647576E-03
       116  3.560715E-05  7.135549E-05  1.885455E-03
       117  3.828976E-16  7.147289E-05  1.885496E-03
       118 -3.560715E-05  7.135549E-05  1.885455E-03
       119  4.702763E-16  7.135324E-05  2.123292E-03
       120  3.567211E-05  7.137462E-05  2.361171E-03
       121  5.647050E-16  7.141168E-05  2.361186E-03
       122 -3.567211E-05  7.137462E-05  2.361171E-03
       123  6.637720E-16  7.137300E-05  2.599021E-03
       124  3.568288E-05  7.137819E-05  2.836882E-03
       125  7.666520E-16  7.138866E-05  2.836886E-03
       126 -3.568288E-05  7.137819E-05  2.836882E-03
       127  8.727052E-16  7.137695E-05  3.074737E-03
       128  3.568781E-05  7.137893E-05  3.312596E-03
       129  9.811971E-16  7.138274E-05  3.312598E-03
       130 -3.568781E-05  7.137893E-05  3.312596E-03
       131  1.091263E-15  7.137831E-05  3.550453E-03
       132 -7.927484E-05  2.424216E-18  2.182011E-04
       133 -6.072163E-05  2.993532E-05  4.586495E-04
       134 -6.228657E-05  1.099368E-17  4.619449E-04
       135 -6.072163E-05 -2.993532E-05  4.586495E-04
       136 -7.158131E-05  2.341374E-17  6.962506E-04
       137 -7.002654E-05  3.438729E-05  9.338924E-04
       138 -7.095492E-05  4.111065E-17  9.345123E-04
       139 -7.002654E-05 -3.438729E-05  9.338924E-04
       140 -7.116221E-05  6.232998E-17  1.171747E-03
       141 -7.120947E-05  3.545003E-05  1.409757E-03
       142 -7.158932E-05  8.716541E-17  1.409931E-03
       143 -7.120947E-05 -3.545003E-05  1.409757E-03
       144 -7.130920E-05  1.148863E-16  1.647576E-03
       145 -7.135549E-05  3.560715E-05  1.885455E-03
       146 -7.147289E-05  1.457794E-16  1.885496E-03
       147 -7.135549E-05 -3.560715E-05  1.885455E-03
       148 -7.135324E-05  1.772938E-16  2.123292E-03
       149 -7.137462E-05  3.567211E-05  2.361171E-03
       150 -7.141168E-05  2.123597E-16  2.361186E-03
       151 -7.137462E-05 -3.567211E-05  2.361171E-03
       152 -7.137300E-05  2.484917E-16  2.599021E-03
       153 -7.137819E-05  3.568288E-05  2.836882E-03
       154 -7.138866E-05  2.871933E-16  2.836886E-03
       155 -7.137819E-05 -3.568288E-05  2.836882E-03
       156 -7.137695E-05  3.267252E-16  3.074737E-03
       157 -7.137893E-05  3.568781E-05  3.312596E-03
       158 -7.138274E-05  3.685146E-16  3.312598E-03
       159 -7.137893E-05 -3.568781E-05  3.312596E-03
       160 -7.137831E-05  4.101382E-16  3.550453E-03
       161  4.361951E-18 -7.927484E-05  2.182011E-04
       162 -2.993532E-05 -6.072163E-05  4.586495E-04
       163  2.500357E-17 -6.228657E-05  4.619449E-04
       164  2.993532E-05 -6.072163E-05  4.586495E-04
       165  5.684444E-17 -7.158131E-05  6.962506E-04
       166 -3.438729E-05 -7.002654E-05  9.338924E-04
       167  1.012061E-16 -7.095492E-05  9.345123E-04
       168  3.438729E-05 -7.002654E-05  9.338924E-04
       169  1.554622E-16 -7.116221E-05  1.171747E-03
       170 -3.545003E-05 -7.120947E-05  1.409757E-03
       171  2.189585E-16 -7.158932E-05  1.409931E-03
       172  3.545003E-05 -7.120947E-05  1.409757E-03
       173  2.912023E-16 -7.130920E-05  1.647576E-03
       174 -3.560715E-05 -7.135549E-05  1.885455E-03
       175  3.707474E-16 -7.147289E-05  1.885496E-03
       176  3.560715E-05 -7.135549E-05  1.885455E-03
       177  4.571121E-16 -7.135324E-05  2.123292E-03
       178 -3.567211E-05 -7.137462E-05  2.361171E-03
       179  5.490737E-16 -7.141168E-05  2.361186E-03
       180  3.567211E-05 -7.137462E-05  2.361171E-03
       181  6.468583E-16 -7.137300E-05  2.599021E-03
       182 -3.568288E-05 -7.137819E-05  2.836882E-03
       183  7.470999E-16 -7.138866E-05  2.836886E-03
       184  3.568288E-05 -7.137819E-05  2.836882E-03
       185  8.520310E-16 -7.137695E-05  3.074737E-03
       186 -3.568781E-05 -7.137893E-05  3.312596E-03
       187  9.585223E-16 -7.138274E-05  3.312598E-03
       188  3.568781E-05 -7.137893E-05  3.312596E-03
       189  1.066739E-15 -7.137831E-05  3.550453E-03
       190  7.927484E-05  1.219110E-18  2.182011E-04
       191  6.072163E-05 -2.993532E-05  4.586495E-04
       192  6.228657E-05  8.308709E-18  4.619449E-04
       193  6.072163E-05  2.993532E-05  4.586495E-04
       194  7.158131E-05  1.934378E-17  6.962506E-04
       195  7.002654E-05 -3.438729E-05  9.338924E-04
       196  7.095492E-05  3.557841E-17  9.345123E-04
       197  7.002654E-05  3.438729E-05  9.338924E-04
       198  7.116221E-05  5.519428E-17  1.171747E-03
       199  7.120947E-05 -3.545003E-05  1.409757E-03
       200  7.158932E-05  7.845680E-17  1.409931E-03
       201  7.120947E-05  3.545003E-05  1.409757E-03
       202  7.130920E-05  1.049080E-16  1.647576E-03
       203  7.135549E-05 -3.560715E-05  1.885455E-03
       204  7.147289E-05  1.334416E-16  1.885496E-03
       205  7.135549E-05  3.560715E-05  1.885455E-03
       206  7.135324E-05  1.638732E-16  2.123292E-03
       207  7.137462E-05 -3.567211E-05  2.361171E-03
       208  7.141168E-05  1.968259E-16  2.361186E-03
       209  7.137462E-05  3.567211E-05  2.361171E-03
       210  7.137300E-05  2.311972E-16  2.599021E-03
       211  7.137819E-05 -3.568288E-05  2.836882E-03
       212  7.138866E-05  2.683095E-16  2.836886E-03
       213  7.137819E-05  3.568288E-05  2.836882E-03
       214  7.137695E-05  3.057517E-16  3.074737E-03
       215  7.137893E-05 -3.568781E-05  3.312596E-03
       216  7.138274E-05  3.462590E-16  3.312598E-03
       217  7.137893E-05  3.568781E-05  3.312596E-03
       218  7.137831E-05  3.852044E-16  3.550453E-03
       219  6.808422E-18  2.554764E-18  2.060657E-04
       220  2.841448E-17  3.118194E-05  4.642565E-04
       221  3.118194E-05  9.483925E-18  4.642565E-04
       222  2.800399E-17  1.022339E-17  4.678470E-04
       223 -3.118194E-05  1.085149E-17  4.642565E-04
       224  2.709870E-17 -3.118194E-05  4.642565E-04
       225  6.054473E-17  2.210538E-17  6.952977E-04
       226  1.065235E-16  3.537984E-05  9.349590E-04
       227  3.537984E-05  3.727471E-17  9.349590E-04
       228  1.055262E-16  3.870384E-17  9.353171E-04
       229 -3.537984E-05  4.003709E-17  9.349590E-04
       230  1.037226E-16 -3.537984E-05  9.349590E-04
       231  1.602418E-16  5.937252E-17  1.171785E-03
       232  2.265278E-16  3.580402E-05  1.409826E-03
       233  3.580402E-05  8.093610E-17  1.409826E-03
       234  2.246996E-16  8.314730E-17  1.409781E-03
       235 -3.580402E-05  8.529246E-17  1.409826E-03
       236  2.221265E-16 -3.580402E-05  1.409826E-03
       237  2.973151E-16  1.102983E-16  1.647655E-03
       238  3.806961E-16  3.573167E-05  1.885459E-03
       239  3.573167E-05  1.367770E-16  1.885459E-03
       240  3.780269E-16  1.398626E-16  1.885407E-03
       241 -3.573167E-05  1.428571E-16  1.885459E-03
       242  3.746975E-16 -3.573167E-05  1.885459E-03
       243  4.646476E-16  1.710587E-16  2.123317E-03
       244  5.613457E-16  3.570692E-05  2.361165E-03
       245  3.570692E-05  2.008636E-16  2.361165E-03
       246  5.574653E-16  2.047290E-16  2.361147E-03
       247 -3.570692E-05  2.085899E-16  2.361165E-03
       248  5.533713E-16 -3.570692E-05  2.361165E-03
       249  6.559275E-16  2.402161E-16  2.599030E-03
       250  7.622150E-16  3.569403E-05  2.836881E-03
       251  3.569403E-05  2.728192E-16  2.836881E-03
       252  7.575514E-16  2.773771E-16  2.836875E-03
       253 -3.569403E-05  2.824527E-16  2.836881E-03
       254  7.524804E-16 -3.569403E-05  2.836881E-03
       255  8.626485E-16  3.167323E-16  3.074739E-03
       256  9.756510E-16  3.569151E-05  3.312596E-03
       257  3.569151E-05  3.515273E-16  3.312596E-03
       258  9.700835E-16  3.565216E-16  3.312594E-03
       259 -3.569151E-05  3.624827E-16  3.312596E-03
       260  9.643867E-16 -3.569151E-05  3.312596E-03
       261  1.079157E-15  3.984712E-16  3.550454E-03

 stresses (elem, integ.pnt.,sxx,syy,szz,sxy,sxz,syz) for set EALL and time  0.1000000E+01

         1   1  1.755066E+01  1.755066E+01  1.045586E+02 -9.952550E-02  9.666234E+00  9.666234E+00
         1   2  1.553565E+01  1.563642E+01  1.000118E+02 -5.095383E-02  1.670053E+00  9.606823E+00
         1   3  1.563642E+01  1.553565E+01  1.000118E+02 -5.095383E-02  9.606823E+00  1.670053E+00
         1   4  1.364603E+01  1.364603E+01  9.537529E+01 -2.470825E-02  1.613015E+00  1.613015E+00
         1   5 -7.581761E+00 -7.581761E+00  9.399807E+01  2.518413E-01 -4.476101E+00 -4.476101E+00
         1   6 -5.510165E+00 -5.606441E+00  9.988690E+01  2.088885E-01 -1.563437E+00 -4.256848E+00
         1   7 -5.606441E+00 -5.510165E+00  9.988690E+01  2.088885E-01 -4.256848E+00 -1.563437E+00
         1   8 -3.099421E+00 -3.099421E+00  1.062429E+02  7.686670E-02 -1.527535E+00 -1.527535E+00
         2   1  1.553565E+01  1.563642E+01  1.000118E+02  5.095383E-02 -1.670053E+00  9.606823E+00
         2   2  1.755066E+01  1.755066E+01  1.045586E+02  9.952550E-02 -9.666234E+00  9.666234E+00
         2   3  1.364603E+01  1.364603E+01  9.537529E+01  2.470825E-02 -1.613015E+00  1.613015E+00
         2   4  1.563642E+01  1.553565E+01  1.000118E+02  5.095383E-02 -9.606823E+00  1.670053E+00
         2   5 -5.510165E+00 -5.606441E+00  9.988690E+01 -2.088885E-01  1.563437E+00 -4.256848E+00
         2   6 -7.581761E+00 -7.581761E+00  9.399807E+01 -2.518413E-01  4.476101E+00 -4.476101E+00
         2   7 -3.099421E+00 -3.099421E+00  1.062429E+02 -7.686670E-02  1.527535E+00 -1.527535E+00
         2   8 -5.606441E+00 -5.510165E+00  9.988690E+01 -2.088885E-01  4.256848E+00 -1.563437E+00
         3   1  1.563642E+01  1.553565E+01  1.000118E+02  5.095383E-02  9.606823E+00 -1.670053E+00
         3   2  1.364603E+01  1.364603E+01  9.537529E+01  2.470825E-02  1.613015E+00 -1.613015E+00
         3   3  1.755066E+01  1.755066E+01  1.045586E+02  9.952550E-02  9.666234E+00 -9.666234E+00
         3   4  1.553565E+01  1.563642E+01  1.000118E+02  5.095383E-02  1.670053E+00 -9.606823E+00
         3   5 -5.606441E+00 -5.510165E+00  9.988690E+01 -2.088885E-01 -4.256848E+00  1.563437E+00
         3   6 -3.099421E+00 -3.099421E+00  1.062429E+02 -7.686670E-02 -1.527535E+00  1.527535E+00
         3   7 -7.581761E+00 -7.581761E+00  9.399807E+01 -2.518413E-01 -4.476101E+00  4.476101E+00
         3   8 -5.510165E+00 -5.606441E+00  9.988690E+01 -2.088885E-01 -1.563437E+00  4.256848E+00
         4   1  1.364603E+01  1.364603E+01  9.537529E+01 -2.470825E-02 -1.613015E+00 -1.613015E+00
         4   2  1.563642E+01  1.553565E+01  1.000118E+02 -5.095383E-02 -9.606823E+00 -1.670053E+00
         4   3  1.553565E+01  1.563642E+01  1.000118E+02 -5.095383E-02 -1.670053E+00 -9.606823E+00
         4   4  1.755066E+01  1.755066E+01  1.045586E+02 -9.952550E-02 -9.666234E+00 -9.666234E+00
         4   5 -3.099421E+00 -3.099421E+00  1.062429E+02  7.686670E-02  1.527535E+00  1.527535E+00
         4   6 -5.606441E+00 -5.510165E+00  9.988690E+01  2.088885E-01  4.256848E+00  1.563437E+00
         4   7 -5.510165E+00 -5.606441E+00  9.988690E+01  2.088885E-01  1.563437E+00  4.256848E+00
         4   8 -7.581761E+00 -7.581761E+00  9.399807E+01  2.518413E-01  4.476101E+00  4.476101E+00
         5   1  3.748102E+00  3.748102E+00  1.024926E+02 -3.140776E-02  1.815493E+00  1.815493E+00
         5   2  2.376064E+00  2.453698E+00  9.998465E+01  2.670937E-02  9.184130E-01  1.524916E+00
         5   3  2.453698E+00  2.376064E+00  9.998465E+01  2.670937E-02  1.524916E+00  9.184130E-01
         5   4  1.328216E+00  1.328216E+00  9.753145E+01  4.799639E-04  8.635899E-01  8.635899E-01
         5   5 -1.310035E+00 -1.310035E+00  9.896909E+01 -9.046994E-02 -7.195482E-01 -7.195482E-01
         5   6 -7.028181E-01 -7.361199E-01  1.000274E+02 -5.428203E-02 -2.506328E-01 -4.688005E-01
         5   7 -7.361199E-01 -7.028181E-01  1.000274E+02 -5.428203E-02 -4.688005E-01 -2.506328E-01
         5   8 -1.589136E-01 -1.589136E-01  1.009779E+02 -2.375678E-02 -1.967518E-01 -1.967518E-01
         6   1  2.376064E+00  2.453698E+00  9.998465E+01 -2.670937E-02 -9.184130E-01  1.524916E+00
         6   2  3.748102E+00  3.748102E+00  1.024926E+02  3.140776E-02 -1.815493E+00  1.815493E+00
         6   3  1.328216E+00  1.328216E+00  9.753145E+01 -4.799639E-04 -8.635899E-01  8.635899E-01
         6   4  2.453698E+00  2.376064E+00  9.998465E+01 -2.670937E-02 -1.524916E+00  9.184130E-01
         6   5 -7.028181E-01 -7.361199E-01  1.000274E+02  5.428203E-02  2.506328E-01 -4.688005E-01
         6   6 -1.310035E+00 -1.310035E+00  9.896909E+01  9.046994E-02  7.195482E-01 -7.195482E-01
         6   7 -1.589136E-01 -1.589136E-01  1.009779E+02  2.375678E-02  1.967518E-01 -1.967518E-01
         6   8 -7.361199E-01 -7.028181E-01  1.000274E+02  5.428203E-02  4.688005E-01 -2.506328E-01
         7   1  2.453698E+00  2.376064E+00  9.998465E+01 -2.670937E-02  1.524916E+00 -9.184130E-01
         7   2  1.328216E+00  1.328216E+00  9.753145E+01 -4.799639E-04  8.635899E-01 -8.635899E-01
         7   3  3.748102E+00  3.748102E+00  1.024926E+02  3.140776E-02  1.815493E+00 -1.815493E+00
         7   4  2.376064E+00  2.453698E+00  9.998465E+01 -2.670937E-02  9.184130E-01 -1.524916E+00
         7   5 -7.361199E-01 -7.028181E-01  1.000274E+02  5.428203E-02 -4.688005E-01  2.506328E-01
         7   6 -1.589136E-01 -1.589136E-01  1.009779E+02  2.375678E-02 -1.967518E-01  1.967518E-01
         7   7 -1.310035E+00 -1.310035E+00  9.896909E+01  9.046994E-02 -7.195482E-01  7.195482E-01
         7   8 -7.028181E-01 -7.361199E-01  1.000274E+02  5.428203E-02 -2.506328E-01  4.688005E-01
         8   1  1.328216E+00  1.328216E+00  9.753145E+01  4.799639E-04 -8.635899E-01 -8.635899E-01
         8   2  2.453698E+00  2.376064E+00  9.998465E+01  2.670937E-02 -1.524916E+00 -9.184130E-01
         8   3  2.376064E+00  2.453698E+00  9.998465E+01  2.670937E-02 -9.184130E-01 -1.524916E+00
         8   4  3.748102E+00  3.748102E+00  1.024926E+02 -3.140776E-02 -1.815493E+00 -1.815493E+00
         8   5 -1.589136E-01 -1.589136E-01  1.009779E+02 -2.375678E-02  1.967518E-01  1.967518E-01
         8   6 -7.361199E-01 -7.028181E-01  1.000274E+02 -5.428203E-02  4.688005E-01  2.506328E-01
         8   7 -7.028181E-01 -7.361199E-01  1.000274E+02 -5.428203E-02  2.506328E-01  4.688005E-01
         8   8 -1.310035E+00 -1.310035E+00  9.896909E+01 -9.046994E-02  7.195482E-01  7.195482E-01
         9   1  4.737522E-01  4.737522E-01  1.004450E+02  1.273013E-01  3.813326E-01  3.813326E-01
         9   2  4.385434E-01  2.263119E-01  9.995635E+01  7.157831E-02  1.295916E-01  1.775787E-01
         9   3  2.263119E-01  4.385434E-01  9.995635E+01  7.157831E-02  1.775787E-01  1.295916E-01
         9   4  2.235968E-01  2.235968E-01  9.964129E+01  3.223229E-02  8.225358E-02  8.225358E-02
         9   5 -2.131773E-01 -2.131773E-01  9.980298E+01 -6.411768E-02 -1.377429E-01 -1.377429E-01
         9   6 -7.141785E-02 -4.271238E-02  1.000421E+02 -3.955356E-02 -5.187971E-02 -1.258908E-02
         9   7 -4.271238E-02 -7.141785E-02  1.000421E+02 -3.955356E-02 -1.258908E-02 -5.187971E-02
         9   8  3.403072E-02  3.403072E-02  1.001129E+02 -1.709878E-02 -1.150744E-02 -1.150744E-02
        10   1  4.385434E-01  2.263119E-01  9.995635E+01 -7.157831E-02 -1.295916E-01  1.775787E-01
        10   2  4.737522E-01  4.737522E-01  1.004450E+02 -1.273013E-01 -3.813326E-01  3.813326E-01
        10   3  2.235968E-01  2.235968E-01  9.964129E+01 -3.223229E-02 -8.225358E-02  8.225358E-02
        10   4  2.263119E-01  4.385434E-01  9.995635E+01 -7.157831E-02 -1.775787E-01  1.295916E-01
        10   5 -7.141785E-02 -4.271238E-02  1.000421E+02  3.955356E-02  5.187971E-02 -1.258908E-02
        10   6 -2.131773E-01 -2.131773E-01  9.980298E+01  6.411768E-02  1.377429E-01 -1.377429E-01
        10   7  3.403072E-02  3.403072E-02  1.001129E+02  1.709878E-02  1.150744E-02 -1.150744E-02
        10   8 -4.271238E-02 -7.141785E-02  1.000421E+02  3.955356E-02  1.258908E-02 -5.187971E-02
        11   1  2.263119E-01  4.385434E-01  9.995635E+01 -7.157831E-02  1.775787E-01 -1.295916E-01
        11   2  2.235968E-01  2.235968E-01  9.964129E+01 -3.223229E-02  8.225358E-02 -8.225358E-02
        11   3  4.737522E-01  4.737522E-01  1.004450E+02 -1.273013E-01  3.813326E-01 -3.813326E-01
        11   4  4.385434E-01  2.263119E-01  9.995635E+01 -7.157831E-02  1.295916E-01 -1.775787E-01
        11   5 -4.271238E-02 -7.141785E-02  1.000421E+02  3.955356E-02 -1.258908E-02  5.187971E-02
        11   6  3.403072E-02  3.403072E-02  1.001129E+02  1.709878E-02 -1.150744E-02  1.150744E-02
        11   7 -2.131773E-01 -2.131773E-01  9.980298E+01  6.411768E-02 -1.377429E-01  1.377429E-01
        11   8 -7.141785E-02 -4.271238E-02  1.000421E+02  3.955356E-02 -5.187971E-02  1.258908E-02
        12   1  2.235968E-01  2.235968E-01  9.964129E+01  3.223229E-02 -8.225358E-02 -8.225358E-02
        12   2  2.263119E-01  4.385434E-01  9.995635E+01  7.157831E-02 -1.775787E-01 -1.295916E-01
        12   3  4.385434E-01  2.263119E-01  9.995635E+01  7.157831E-02 -1.295916E-01 -1.775787E-01
        12   4  4.737522E-01  4.737522E-01  1.004450E+02  1.273013E-01 -3.813326E-01 -3.813326E-01
        12   5  3.403072E-02  3.403072E-02  1.001129E+02 -1.709878E-02  1.150744E-02  1.150744E-02
        12   6 -4.271238E-02 -7.141785E-02  1.000421E+02 -3.955356E-02  1.258908E-02  5.187971E-02
        12   7 -7.141785E-02 -4.271238E-02  1.000421E+02 -3.955356E-02  5.187971E-02  1.258908E-02
        12   8 -2.131773E-01 -2.131773E-01  9.980298E+01 -6.411768E-02  1.377429E-01  1.377429E-01
        13   1  1.276842E-01  1.276842E-01  1.000874E+02  4.077614E-02  6.117071E-02  6.117071E-02
        13   2  2.698788E-02  9.962306E-03  9.996777E+01  2.946194E-02  3.713068E-02 -1.886385E-02
        13   3  9.962306E-03  2.698788E-02  9.996777E+01  2.946194E-02 -1.886385E-02  3.713068E-02
        13   4 -1.767052E-02 -1.767052E-02  9.997692E+01  1.156441E-02  7.736240E-03  7.736240E-03
        13   5 -4.597857E-02 -4.597857E-02  9.996953E+01 -2.588147E-02 -3.011247E-02 -3.011247E-02
        13   6 -1.229715E-02  3.512782E-03  1.000181E+02 -1.614693E-02 -9.219579E-03  1.392050E-02
        13   7  3.512782E-03 -1.229715E-02  1.000181E+02 -1.614693E-02  1.392050E-02 -9.219579E-03
        13   8  5.311589E-03  5.311589E-03  9.999418E+01 -6.733893E-03  5.833740E-03  5.833740E-03
        14   1  2.698788E-02  9.962306E-03  9.996777E+01 -2.946194E-02 -3.713068E-02 -1.886385E-02
        14   2  1.276842E-01  1.276842E-01  1.000874E+02 -4.077614E-02 -6.117071E-02  6.117071E-02
        14   3 -1.767052E-02 -1.767052E-02  9.997692E+01 -1.156441E-02 -7.736240E-03  7.736240E-03
        14   4  9.962306E-03  2.698788E-02  9.996777E+01 -2.946194E-02  1.886385E-02  3.713068E-02
        14   5 -1.229715E-02  3.512782E-03  1.000181E+02  1.614693E-02  9.219579E-03  1.392050E-02
        14   6 -4.597857E-02 -4.597857E-02  9.996953E+01  2.588147E-02  3.011247E-02 -3.011247E-02
        14   7  5.311589E-03  5.311589E-03  9.999418E+01  6.733893E-03 -5.833740E-03  5.833740E-03
        14   8  3.512782E-03 -1.229715E-02  1.000181E+02  1.614693E-02 -1.392050E-02 -9.219579E-03
        15   1  9.962306E-03  2.698788E-02  9.996777E+01 -2.946194E-02 -1.886385E-02 -3.713068E-02
        15   2 -1.767052E-02 -1.767052E-02  9.997692E+01 -1.156441E-02  7.736240E-03 -7.736240E-03
        15   3  1.276842E-01  1.276842E-01  1.000874E+02 -4.077614E-02  6.117071E-02 -6.117071E-02
        15   4  2.698788E-02  9.962306E-03  9.996777E+01 -2.946194E-02  3.713068E-02  1.886385E-02
        15   5  3.512782E-03 -1.229715E-02  1.000181E+02  1.614693E-02  1.392050E-02  9.219579E-03
        15   6  5.311589E-03  5.311589E-03  9.999418E+01  6.733893E-03  5.833740E-03 -5.833740E-03
        15   7 -4.597857E-02 -4.597857E-02  9.996953E+01  2.588147E-02 -3.011247E-02  3.011247E-02
        15   8 -1.229715E-02  3.512782E-03  1.000181E+02  1.614693E-02 -9.219579E-03 -1.392050E-02
        16   1 -1.767052E-02 -1.767052E-02  9.997692E+01  1.156441E-02 -7.736240E-03 -7.736240E-03
        16   2  9.962306E-03  2.698788E-02  9.996777E+01  2.946194E-02  1.886385E-02 -3.713068E-02
        16   3  2.698788E-02  9.962306E-03  9.996777E+01  2.946194E-02 -3.713068E-02  1.886385E-02
        16   4  1.276842E-01  1.276842E-01  1.000874E+02  4.077614E-02 -6.117071E-02 -6.117071E-02
        16   5  5.311589E-03  5.311589E-03  9.999418E+01 -6.733893E-03 -5.833740E-03 -5.833740E-03
        16   6  3.512782E-03 -1.229715E-02  1.000181E+02 -1.614693E-02 -1.392050E-02  9.219579E-03
        16   7 -1.229715E-02  3.512782E-03  1.000181E+02 -1.614693E-02  9.219579E-03 -1.392050E-02
        16   8 -4.597857E-02 -4.597857E-02  9.996953E+01 -2.588147E-02  3.011247E-02  3.011247E-02
        17   1  1.601921E-02  1.601921E-02  1.000171E+02  1.832849E-02  2.056759E-02  2.056759E-02
        17   2  1.262994E-02 -7.447987E-03  9.998832E+01  1.095258E-02  4.675589E-03 -7.574440E-03
        17   3 -7.447987E-03  1.262994E-02  9.998832E+01  1.095258E-02 -7.574440E-03  4.675589E-03
        17   4  3.462307E-03  3.462307E-03  1.000062E+02  4.961311E-03 -5.684808E-03 -5.684808E-03
        17   5 -1.064496E-02 -1.064496E-02  9.999012E+01 -8.098283E-03 -8.559916E-03 -8.559916E-03
        17   6 -7.147808E-04  4.886717E-03  1.000068E+02 -4.988320E-03 -3.196371E-03  5.862164E-03
        17   7  4.886717E-03 -7.147808E-04  1.000068E+02 -4.988320E-03  5.862164E-03 -3.196371E-03
        17   8  3.158037E-03  3.158037E-03  9.999618E+01 -2.094305E-03  2.385480E-03  2.385480E-03
        18   1  1.262994E-02 -7.447987E-03  9.998832E+01 -1.095258E-02 -4.675589E-03 -7.574440E-03
        18   2  1.601921E-02  1.601921E-02  1.000171E+02 -1.832849E-02 -2.056759E-02  2.056759E-02
        18   3  3.462307E-03  3.462307E-03  1.000062E+02 -4.961311E-03  5.684808E-03 -5.684808E-03
        18   4 -7.447987E-03  1.262994E-02  9.998832E+01 -1.095258E-02  7.574440E-03  4.675589E-03
        18   5 -7.147808E-04  4.886717E-03  1.000068E+02  4.988320E-03  3.196371E-03  5.862164E-03
        18   6 -1.064496E-02 -1.064496E-02  9.999012E+01  8.098283E-03  8.559916E-03 -8.559916E-03
        18   7  3.158037E-03  3.158037E-03  9.999618E+01  2.094305E-03 -2.385480E-03  2.385480E-03
        18   8  4.886717E-03 -7.147808E-04  1.000068E+02  4.988320E-03 -5.862164E-03 -3.196371E-03
        19   1 -7.447987E-03  1.262994E-02  9.998832E+01 -1.095258E-02 -7.574440E-03 -4.675589E-03
        19   2  3.462307E-03  3.462307E-03  1.000062E+02 -4.961311E-03 -5.684808E-03  5.684808E-03
        19   3  1.601921E-02  1.601921E-02  1.000171E+02 -1.832849E-02  2.056759E-02 -2.056759E-02
        19   4  1.262994E-02 -7.447987E-03  9.998832E+01 -1.095258E-02  4.675589E-03  7.574440E-03
        19   5  4.886717E-03 -7.147808E-04  1.000068E+02  4.988320E-03  5.862164E-03  3.196371E-03
        19   6  3.158037E-03  3.158037E-03  9.999618E+01  2.094305E-03  2.385480E-03 -2.385480E-03
        19   7 -1.064496E-02 -1.064496E-02  9.999012E+01  8.098283E-03 -8.559916E-03  8.559916E-03
        19   8 -7.147808E-04  4.886717E-03  1.000068E+02  4.988320E-03 -3.196371E-03 -5.862164E-03
        20   1  3.462307E-03  3.462307E-03  1.000062E+02  4.961311E-03  5.684808E-03  5.684808E-03
        20   2 -7.447987E-03  1.262994E-02  9.998832E+01  1.095258E-02  7.574440E-03 -4.675589E-03
        20   3  1.262994E-02 -7.447987E-03  9.998832E+01  1.095258E-02 -4.675589E-03  7.574440E-03
        20   4  1.601921E-02  1.601921E-02  1.000171E+02  1.832849E-02 -2.056759E-02 -2.056759E-02
        20   5  3.158037E-03  3.158037E-03  9.999618E+01 -2.094305E-03 -2.385480E-03 -2.385480E-03
        20   6  4.886717E-03 -7.147808E-04  1.000068E+02 -4.988320E-03 -5.862164E-03  3.196371E-03
        20   7 -7.147808E-04  4.886717E-03  1.000068E+02 -4.988320E-03  3.196371E-03 -5.862164E-03
        20   8 -1.064496E-02 -1.064496E-02  9.999012E+01 -8.098283E-03  8.559916E-03  8.559916E-03
        21   1  8.340418E-03  8.340418E-03  1.000051E+02  4.434287E-03  4.027984E-03  4.027984E-03