
 displacements (vx,vy,vz) for set N1 and time  0.1000000E-07

       100  2.333825E-25  2.388560E-24 -1.462070E-07

 displacements (vx,vy,vz) for set N1 and time  0.2000000E-07

       100  1.738788E-24  1.625093E-23 -5.661825E-07

 displacements (vx,vy,vz) for set N1 and time  0.3000000E-07

       100  2.180321E-24  5.530302E-23 -1.209367E-06

 displacements (vx,vy,vz) for set N1 and time  0.4500000E-07

       100  5.674289E-24  1.699311E-22 -2.432766E-06

 displacements (vx,vy,vz) for set N1 and time  0.5000000E-07

       100  1.185472E-23  2.242596E-22 -2.884115E-06
