
 displacements (vx,vy,vz) for set NALL and time  0.1000000E-02

         1  0.000000E+00  0.000000E+00  0.000000E+00
         2 -6.428533E-04  0.000000E+00  0.000000E+00
         3 -6.428533E-04 -6.428533E-04  0.000000E+00
         4 -5.337427E-13 -6.428533E-04  0.000000E+00
         5  6.302406E-12  9.021403E-12  1.180946E-02
         6 -6.428533E-04  9.281732E-12  1.180946E-02
         7 -6.428533E-04 -6.428533E-04  1.180946E-02
         8  6.047488E-12 -6.428533E-04  1.180946E-02
         9 -1.607133E-04  5.229219E-14  0.000000E+00
        10 -3.214267E-04  1.531710E-13  0.000000E+00
        11 -4.821400E-04  5.222121E-14  0.000000E+00
        12 -6.428533E-04 -1.607133E-04  0.000000E+00
        13 -6.428533E-04 -3.214267E-04  0.000000E+00
        14 -6.428533E-04 -4.821400E-04  0.000000E+00
        15 -4.821400E-04 -6.428533E-04  0.000000E+00
        16 -3.214267E-04 -6.428533E-04  0.000000E+00
        17 -1.607133E-04 -6.428533E-04  0.000000E+00
        18 -3.520276E-13 -4.821400E-04  0.000000E+00
        19 -1.189623E-13 -3.214267E-04  0.000000E+00
        20 -8.509157E-14 -1.607133E-04  0.000000E+00
        21 -1.607133E-04  1.361655E-11  1.180946E-02
        22 -3.214266E-04  2.339809E-11  1.180946E-02
        23 -4.821400E-04  1.374710E-11  1.180946E-02
        24 -6.428533E-04 -1.607133E-04  1.180946E-02
        25 -6.428533E-04 -3.214266E-04  1.180946E-02
        26 -6.428533E-04 -4.821400E-04  1.180946E-02
        27 -4.821400E-04 -6.428533E-04  1.180946E-02
        28 -3.214266E-04 -6.428533E-04  1.180946E-02
        29 -1.607133E-04 -6.428533E-04  1.180946E-02
        30  1.063843E-11 -4.821400E-04  1.180946E-02
        31  2.041615E-11 -3.214266E-04  1.180946E-02
        32  1.076514E-11 -1.607133E-04  1.180946E-02
        33 -6.428533E-04 -2.476161E-13  7.380910E-04
        34 -6.428533E-04 -1.362134E-13  1.476182E-03
        35 -6.428533E-04  1.252497E-12  2.214273E-03
        36 -6.428533E-04  2.759816E-12  2.952364E-03
        37 -6.428533E-04  2.307090E-12  3.690455E-03
        38 -6.428533E-04  2.404798E-12  4.428546E-03
        39 -6.428533E-04  6.580731E-12  5.166637E-03
        40 -6.428533E-04  1.227421E-11  5.904728E-03
        41 -6.428533E-04  7.951698E-12  6.642819E-03
        42 -6.428533E-04 -5.642698E-13  7.380910E-03
        43 -6.428533E-04  1.613779E-11  8.119001E-03
        44 -6.428533E-04  3.581542E-11  8.857092E-03
        45 -6.428533E-04  8.712346E-12  9.595183E-03
        46 -6.428533E-04  7.337506E-12  1.033327E-02
        47 -6.428533E-04  2.928177E-11  1.107137E-02
        48  2.666681E-11  2.902954E-11  1.107137E-02
        49  5.076951E-12  7.093491E-12  1.033327E-02
        50  6.790117E-12  8.479390E-12  9.595183E-03
        51  3.419422E-11  3.559626E-11  8.857092E-03
        52  1.477349E-11  1.593965E-11  8.119001E-03
        53 -1.710983E-12 -7.373440E-13  7.380910E-03
        54  6.994343E-12  7.801886E-12  6.642819E-03
        55  1.149015E-11  1.214415E-11  5.904728E-03
        56  5.958604E-12  6.467109E-12  5.166637E-03
        57  1.929059E-12  2.305823E-12  4.428546E-03
        58  1.958994E-12  2.223194E-12  3.690455E-03
        59  2.522752E-12  2.693585E-12  2.952364E-03
        60  1.111771E-12  1.207892E-12  2.214273E-03
        61 -2.010536E-13 -1.589779E-13  1.476182E-03
        62 -2.643082E-13 -2.539987E-13  7.380910E-04
        63 -6.428533E-04 -6.428533E-04  7.380910E-04
        64 -6.428533E-04 -6.428533E-04  1.476182E-03
        65 -6.428533E-04 -6.428533E-04  2.214273E-03
        66 -6.428533E-04 -6.428533E-04  2.952364E-03
        67 -6.428533E-04 -6.428533E-04  3.690455E-03
        68 -6.428533E-04 -6.428533E-04  4.428546E-03
        69 -6.428533E-04 -6.428533E-04  5.166637E-03
        70 -6.428533E-04 -6.428533E-04  5.904728E-03
        71 -6.428533E-04 -6.428533E-04  6.642819E-03
        72 -6.428533E-04 -6.428533E-04  7.380910E-03
        73 -6.428533E-04 -6.428533E-04  8.119001E-03
        74 -6.428533E-04 -6.428533E-04  8.857092E-03
        75 -6.428533E-04 -6.428533E-04  9.595183E-03
        76 -6.428533E-04 -6.428533E-04  1.033327E-02
        77 -6.428533E-04 -6.428533E-04  1.107137E-02
        78 -7.922339E-13 -6.428533E-04  7.380910E-04
        79 -7.129089E-13 -6.428533E-04  1.476182E-03
        80  6.229555E-13 -6.428533E-04  2.214273E-03
        81  2.057007E-12 -6.428533E-04  2.952364E-03
        82  1.511100E-12 -6.428533E-04  3.690455E-03
        83  1.497001E-12 -6.428533E-04  4.428546E-03
        84  5.545068E-12 -6.428533E-04  5.166637E-03
        85  1.109622E-11 -6.428533E-04  5.904728E-03
        86  6.616184E-12 -6.428533E-04  6.642819E-03
        87 -2.077770E-12 -6.428533E-04  7.380910E-03
        88  1.441815E-11 -6.428533E-04  8.119001E-03
        89  3.385518E-11 -6.428533E-04  8.857092E-03
        90  6.473238E-12 -6.428533E-04  9.595183E-03
        91  4.785690E-12 -6.428533E-04  1.033327E-02
        92  2.639541E-11 -6.428533E-04  1.107137E-02
        93 -3.214267E-04 -1.607133E-04  0.000000E+00
        94 -1.607133E-04 -3.214267E-04  0.000000E+00
        95 -3.214267E-04 -3.214267E-04  0.000000E+00
        96 -4.821400E-04 -3.214267E-04  0.000000E+00
        97 -3.214267E-04 -4.821400E-04  0.000000E+00
        98 -3.214266E-04 -1.607133E-04  1.180946E-02
        99 -1.607133E-04 -3.214266E-04  1.180946E-02
       100 -3.214266E-04 -3.214266E-04  1.180946E-02
       101 -4.821400E-04 -3.214266E-04  1.180946E-02
       102 -3.214266E-04 -4.821400E-04  1.180946E-02
       103 -3.214267E-04 -1.281326E-13  7.380910E-04
       104 -1.607133E-04 -1.085494E-13  1.476182E-03
       105 -3.214267E-04 -1.999765E-13  1.476182E-03
       106 -4.821400E-04 -9.719216E-14  1.476182E-03
       107 -3.214267E-04  1.088628E-12  2.214273E-03
       108 -1.607133E-04  2.787791E-12  2.952364E-03
       109 -3.214267E-04  3.054222E-12  2.952364E-03
       110 -4.821400E-04  2.820930E-12  2.952364E-03
       111 -3.214267E-04  2.736583E-12  3.690455E-03
       112 -1.607133E-04  2.377653E-12  4.428546E-03
       113 -3.214267E-04  2.043708E-12  4.428546E-03
       114 -4.821400E-04  2.427144E-12  4.428546E-03
       115 -3.214267E-04  5.448286E-12  5.166637E-03
       116 -1.607133E-04  1.249355E-11  5.904728E-03
       117 -3.214267E-04  1.353471E-11  5.904728E-03
       118 -4.821400E-04  1.255856E-11  5.904728E-03
       119 -3.214267E-04  9.886359E-12  6.642819E-03
       120 -1.607133E-04 -2.131836E-12  7.380910E-03
       121 -3.214267E-04 -4.698559E-12  7.380910E-03
       122 -4.821400E-04 -2.045310E-12  7.380910E-03
       123 -3.214266E-04  1.427948E-11  8.119001E-03
       124 -1.607133E-04  3.940718E-11  8.857092E-03
       125 -3.214266E-04  4.480450E-11  8.857092E-03
       126 -4.821400E-04  3.951683E-11  8.857092E-03
       127 -3.214266E-04  6.372856E-12  9.595183E-03
       128 -1.607133E-04  4.456860E-12  1.033327E-02
       129 -3.214266E-04 -3.801284E-13  1.033327E-02
       130 -4.821400E-04  4.578782E-12  1.033327E-02
       131 -3.214266E-04  3.566662E-11  1.107137E-02
       132 -6.428533E-04 -3.214267E-04  7.380910E-04
       133 -6.428533E-04 -1.607133E-04  1.476182E-03
       134 -6.428533E-04 -3.214267E-04  1.476182E-03
       135 -6.428533E-04 -4.821400E-04  1.476182E-03
       136 -6.428533E-04 -3.214267E-04  2.214273E-03
       137 -6.428533E-04 -1.607133E-04  2.952364E-03
       138 -6.428533E-04 -3.214267E-04  2.952364E-03
       139 -6.428533E-04 -4.821400E-04  2.952364E-03
       140 -6.428533E-04 -3.214267E-04  3.690455E-03
       141 -6.428533E-04 -1.607133E-04  4.428546E-03
       142 -6.428533E-04 -3.214267E-04  4.428546E-03
       143 -6.428533E-04 -4.821400E-04  4.428546E-03
       144 -6.428533E-04 -3.214267E-04  5.166637E-03
       145 -6.428533E-04 -1.607133E-04  5.904728E-03
       146 -6.428533E-04 -3.214267E-04  5.904728E-03
       147 -6.428533E-04 -4.821400E-04  5.904728E-03
       148 -6.428533E-04 -3.214267E-04  6.642819E-03
       149 -6.428533E-04 -1.607133E-04  7.380910E-03
       150 -6.428533E-04 -3.214266E-04  7.380910E-03
       151 -6.428533E-04 -4.821400E-04  7.380910E-03
       152 -6.428533E-04 -3.214266E-04  8.119001E-03
       153 -6.428533E-04 -1.607133E-04  8.857092E-03
       154 -6.428533E-04 -3.214266E-04  8.857092E-03
       155 -6.428533E-04 -4.821400E-04  8.857092E-03
       156 -6.428533E-04 -3.214266E-04  9.595183E-03
       157 -6.428533E-04 -1.607133E-04  1.033327E-02
       158 -6.428533E-04 -3.214266E-04  1.033327E-02
       159 -6.428533E-04 -4.821400E-04  1.033327E-02
       160 -6.428533E-04 -3.214266E-04  1.107137E-02
       161 -3.214267E-04 -6.428533E-04  7.380910E-04
       162 -4.821400E-04 -6.428533E-04  1.476182E-03
       163 -3.214267E-04 -6.428533E-04  1.476182E-03
       164 -1.607133E-04 -6.428533E-04  1.476182E-03
       165 -3.214267E-04 -6.428533E-04  2.214273E-03
       166 -4.821400E-04 -6.428533E-04  2.952364E-03
       167 -3.214267E-04 -6.428533E-04  2.952364E-03
       168 -1.607133E-04 -6.428533E-04  2.952364E-03
       169 -3.214267E-04 -6.428533E-04  3.690455E-03
       170 -4.821400E-04 -6.428533E-04  4.428546E-03
       171 -3.214267E-04 -6.428533E-04  4.428546E-03
       172 -1.607133E-04 -6.428533E-04  4.428546E-03
       173 -3.214267E-04 -6.428533E-04  5.166637E-03
       174 -4.821400E-04 -6.428533E-04  5.904728E-03
       175 -3.214267E-04 -6.428533E-04  5.904728E-03
       176 -1.607133E-04 -6.428533E-04  5.904728E-03
       177 -3.214267E-04 -6.428533E-04  6.642819E-03
       178 -4.821400E-04 -6.428533E-04  7.380910E-03
       179 -3.214267E-04 -6.428533E-04  7.380910E-03
       180 -1.607133E-04 -6.428533E-04  7.380910E-03
       181 -3.214266E-04 -6.428533E-04  8.119001E-03
       182 -4.821400E-04 -6.428533E-04  8.857092E-03
       183 -3.214266E-04 -6.428533E-04  8.857092E-03
       184 -1.607133E-04 -6.428533E-04  8.857092E-03
       185 -3.214266E-04 -6.428533E-04  9.595183E-03
       186 -4.821400E-04 -6.428533E-04  1.033327E-02
       187 -3.214266E-04 -6.428533E-04  1.033327E-02
       188 -1.607133E-04 -6.428533E-04  1.033327E-02
       189 -3.214266E-04 -6.428533E-04  1.107137E-02
       190 -4.109332E-13 -3.214267E-04  7.380910E-04
       191 -5.443135E-13 -4.821400E-04  1.476182E-03
       192 -5.147962E-13 -3.214267E-04  1.476182E-03
       193 -2.883515E-13 -1.607133E-04  1.476182E-03
       194  7.206399E-13 -3.214267E-04  2.214273E-03
       195  2.247552E-12 -4.821400E-04  2.952364E-03
       196  2.612666E-12 -3.214267E-04  2.952364E-03
       197  2.480391E-12 -1.607133E-04  2.952364E-03
       198  2.201751E-12 -3.214267E-04  3.690455E-03
       199  1.648659E-12 -4.821400E-04  4.428546E-03
       200  1.396870E-12 -3.214267E-04  4.428546E-03
       201  1.864709E-12 -1.607133E-04  4.428546E-03
       202  4.672636E-12 -3.214267E-04  5.166637E-03
       203  1.150963E-11 -4.821400E-04  5.904728E-03
       204  1.261596E-11 -3.214267E-04  5.904728E-03
       205  1.170657E-11 -1.607133E-04  5.904728E-03
       206  8.811175E-12 -3.214267E-04  6.642819E-03
       207 -3.428862E-12 -4.821400E-04  7.380910E-03
       208 -5.948872E-12 -3.214266E-04  7.380910E-03
       209 -3.245461E-12 -1.607133E-04  7.380910E-03
       210  1.282643E-11 -3.214266E-04  8.119001E-03
       211  3.768721E-11 -4.821400E-04  8.857092E-03
       212  4.311181E-11 -3.214266E-04  8.857092E-03
       213  3.785672E-11 -1.607133E-04  8.857092E-03
       214  4.399151E-12 -3.214266E-04  9.595183E-03
       215  2.157049E-12 -4.821400E-04  1.033327E-02
       216 -2.669263E-12 -3.214266E-04  1.033327E-02
       217  2.302833E-12 -1.607133E-04  1.033327E-02
       218  3.303900E-11 -3.214266E-04  1.107137E-02
       219 -3.214267E-04 -3.214267E-04  7.380910E-04
       220 -3.214267E-04 -1.607133E-04  1.476182E-03
       221 -1.607133E-04 -3.214267E-04  1.476182E-03
       222 -3.214267E-04 -3.214267E-04  1.476182E-03
       223 -4.821400E-04 -3.214267E-04  1.476182E-03
       224 -3.214267E-04 -4.821400E-04  1.476182E-03
       225 -3.214267E-04 -3.214267E-04  2.214273E-03
       226 -3.214267E-04 -1.607133E-04  2.952364E-03
       227 -1.607133E-04 -3.214267E-04  2.952364E-03
       228 -3.214267E-04 -3.214267E-04  2.952364E-03
       229 -4.821400E-04 -3.214267E-04  2.952364E-03
       230 -3.214267E-04 -4.821400E-04  2.952364E-03
       231 -3.214267E-04 -3.214267E-04  3.690455E-03
       232 -3.214267E-04 -1.607133E-04  4.428546E-03
       233 -1.607133E-04 -3.214267E-04  4.428546E-03
       234 -3.214267E-04 -3.214267E-04  4.428546E-03
       235 -4.821400E-04 -3.214267E-04  4.428546E-03
       236 -3.214267E-04 -4.821400E-04  4.428546E-03
       237 -3.214267E-04 -3.214267E-04  5.166637E-03
       238 -3.214267E-04 -1.607133E-04  5.904728E-03
       239 -1.607133E-04 -3.214267E-04  5.904728E-03
       240 -3.214267E-04 -3.214267E-04  5.904728E-03
       241 -4.821400E-04 -3.214267E-04  5.904728E-03
       242 -3.214267E-04 -4.821400E-04  5.904728E-03
       243 -3.214267E-04 -3.214267E-04  6.642819E-03
       244 -3.214267E-04 -1.607133E-04  7.380910E-03
       245 -1.607133E-04 -3.214266E-04  7.380910E-03
       246 -3.214267E-04 -3.214266E-04  7.380910E-03
       247 -4.821400E-04 -3.214266E-04  7.380910E-03
       248 -3.214267E-04 -4.821400E-04  7.380910E-03
       249 -3.214266E-04 -3.214266E-04  8.119001E-03
       250 -3.214266E-04 -1.607133E-04  8.857092E-03
       251 -1.607133E-04 -3.214266E-04  8.857092E-03
       252 -3.214266E-04 -3.214266E-04  8.857092E-03
       253 -4.821400E-04 -3.214266E-04  8.857092E-03
       254 -3.214266E-04 -4.821400E-04  8.857092E-03
       255 -3.214266E-04 -3.214266E-04  9.595183E-03
       256 -3.214266E-04 -1.607133E-04  1.033327E-02
       257 -1.607133E-04 -3.214266E-04  1.033327E-02
       258 -3.214266E-04 -3.214266E-04  1.033327E-02
       259 -4.821400E-04 -3.214266E-04  1.033327E-02
       260 -3.214266E-04 -4.821400E-04  1.033327E-02
       261 -3.214266E-04 -3.214266E-04  1.107137E-02

 equivalent plastic strain (elem, integ.pnt.,pe)for set EALL and time  0.1000000E-02

         1   1  9.999953E-04
         1   2  9.999953E-04
         1   3  9.999953E-04
         1   4  9.999953E-04
         1   5  9.999953E-04
         1   6  9.999953E-04
         1   7  9.999953E-04
         1   8  9.999953E-04
         2   1  9.999953E-04
         2   2  9.999953E-04
         2   3  9.999953E-04
         2   4  9.999953E-04
         2   5  9.999953E-04
         2   6  9.999953E-04
         2   7  9.999953E-04
         2   8  9.999953E-04
         3   1  9.999953E-04
         3   2  9.999953E-04
         3   3  9.999953E-04
         3   4  9.999953E-04
         3   5  9.999953E-04
         3   6  9.999953E-04
         3   7  9.999953E-04
         3   8  9.999953E-04
         4   1  9.999953E-04
         4   2  9.999953E-04
         4   3  9.999953E-04
         4   4  9.999953E-04
         4   5  9.999953E-04
         4   6  9.999953E-04
         4   7  9.999953E-04
         4   8  9.999953E-04
         5   1  9.999953E-04
         5   2  9.999953E-04
         5   3  9.999953E-04
         5   4  9.999953E-04
         5   5  9.999953E-04
         5   6  9.999953E-04
         5   7  9.999953E-04
         5   8  9.999953E-04
         6   1  9.999953E-04
         6   2  9.999953E-04
         6   3  9.999953E-04
         6   4  9.999953E-04
         6   5  9.999953E-04
         6   6  9.999953E-04
         6   7  9.999953E-04
         6   8  9.999953E-04
         7   1  9.999953E-04
         7   2  9.999953E-04
         7   3  9.999953E-04
         7   4  9.999953E-04
         7   5  9.999953E-04
         7   6  9.999953E-04
         7   7  9.999953E-04
         7   8  9.999953E-04
         8   1  9.999953E-04
         8   2  9.999953E-04
         8   3  9.999953E-04
         8   4  9.999953E-04
         8   5  9.999953E-04
         8   6  9.999953E-04
         8   7  9.999953E-04
         8   8  9.999953E-04
         9   1  9.999953E-04
         9   2  9.999953E-04
         9   3  9.999953E-04
         9   4  9.999953E-04
         9   5  9.999953E-04
         9   6  9.999953E-04
         9   7  9.999953E-04
         9   8  9.999953E-04
        10   1  9.999953E-04
        10   2  9.999953E-04
        10   3  9.999953E-04
        10   4  9.999953E-04
        10   5  9.999953E-04
        10   6  9.999953E-04
        10   7  9.999953E-04
        10   8  9.999953E-04
        11   1  9.999953E-04
        11   2  9.999953E-04
        11   3  9.999953E-04
        11   4  9.999953E-04
        11   5  9.999953E-04
        11   6  9.999953E-04
        11   7  9.999953E-04
        11   8  9.999953E-04
        12   1  9.999953E-04
        12   2  9.999953E-04
        12   3  9.999953E-04
        12   4  9.999953E-04
        12   5  9.999953E-04
        12   6  9.999953E-04
        12   7  9.999953E-04
        12   8  9.999953E-04
        13   1  9.999953E-04
        13   2  9.999953E-04
        13   3  9.999953E-04
        13   4  9.999953E-04
        13   5  9.999953E-04
        13   6  9.999953E-04
        13   7  9.999953E-04
        13   8  9.999953E-04
        14   1  9.999953E-04
        14   2  9.999953E-04
        14   3  9.999953E-04
        14   4  9.999953E-04
        14   5  9.999953E-04
        14   6  9.999953E-04
        14   7  9.999953E-04
        14   8  9.999953E-04
        15   1  9.999953E-04
        15   2  9.999953E-04
        15   3  9.999953E-04
        15   4  9.999953E-04
        15   5  9.999953E-04
        15   6  9.999953E-04
        15   7  9.999953E-04
        15   8  9.999953E-04
        16   1  9.999953E-04
        16   2  9.999953E-04
        16   3  9.999953E-04
        16   4  9.999953E-04
        16   5  9.999953E-04
        16   6  9.999953E-04
        16   7  9.999953E-04
        16   8  9.999953E-04
        17   1  9.999953E-04
        17   2  9.999953E-04
        17   3  9.999953E-04
        17   4  9.999953E-04
        17   5  9.999953E-04
        17   6  9.999953E-04
        17   7  9.999953E-04
        17   8  9.999953E-04
        18   1  9.999953E-04
        18   2  9.999953E-04
        18   3  9.999953E-04
        18   4  9.999953E-04
        18   5  9.999953E-04
        18   6  9.999953E-04
        18   7  9.999953E-04
        18   8  9.999953E-04
        19   1  9.999953E-04
        19   2  9.999953E-04
        19   3  9.999953E-04
        19   4  9.999953E-04
        19   5  9.999953E-04
        19   6  9.999953E-04
        19   7  9.999953E-04
        19   8  9.999953E-04
        20   1  9.999953E-04
        20   2  9.999953E-04
        20   3  9.999953E-04
        20   4  9.999953E-04
        20   5  9.999953E-04
        20   6  9.999953E-04
        20   7  9.999953E-04
        20   8  9.999953E-04
        21   1  9.999953E-04
        21   2  9.999953E-04
        21   3  9.999953E-04
        21   4  9.999953E-04
        21   5  9.999953E-04
        21   6  9.999953E-04
        21   7  9.999953E-04
        21   8  9.999953E-04
        22   1  9.999953E-04
        22   2  9.999953E-04
        22   3  9.999953E-04
        22   4  9.999953E-04
        22   5  9.999953E-04
        22   6  9.999953E-04
        22   7  9.999953E-04
        22   8  9.999953E-04
        23   1  9.999953E-04
        23   2  9.999953E-04
        23   3  9.999953E-04
        23   4  9.999953E-04
        23   5  9.999953E-04
        23   6  9.999953E-04
        23   7  9.999953E-04
        23   8  9.999953E-04
        24   1  9.999953E-04
        24   2  9.999953E-04
        24   3  9.999953E-04
        24   4  9.999953E-04
        24   5  9.999953E-04
        24   6  9.999953E-04
        24   7  9.999953E-04
        24   8  9.999953E-04
        25   1  9.999953E-04
        25   2  9.999953E-04
        25   3  9.999953E-04
        25   4  9.999953E-04
        25   5  9.999953E-04
        25   6  9.999953E-04
        25   7  9.999953E-04
        25   8  9.999953E-04
        26   1  9.999953E-04
        26   2  9.999953E-04
        26   3  9.999953E-04
        26   4  9.999953E-04
        26   5  9.999953E-04
        26   6  9.999953E-04
        26   7  9.999953E-04
        26   8  9.999953E-04
        27   1  9.999953E-04
        27   2  9.999953E-04
        27   3  9.999953E-04
        27   4  9.999953E-04
        27   5  9.999953E-04
        27   6  9.999953E-04
        27   7  9.999953E-04
        27   8  9.999953E-04
        28   1  9.999953E-04
        28   2  9.999953E-04
        28   3  9.999953E-04
        28   4  9.999953E-04
        28   5  9.999953E-04
        28   6  9.999953E-04
        28   7  9.999953E-04
        28   8  9.999953E-04
        29   1  9.999953E-04
        29   2  9.999953E-04
        29   3  9.999953E-04
        29   4  9.999953E-04
        29   5  9.999953E-04
        29   6  9.999953E-04
        29   7  9.999953E-04
        29   8  9.999953E-04
        30   1  9.999953E-04
        30   2  9.999953E-04
        30   3  9.999953E-04
        30   4  9.999953E-04
        30   5  9.999953E-04
        30   6  9.999953E-04
        30   7  9.999953E-04
        30   8  9.999953E-04
        31   1  9.999953E-04
        31   2  9.999953E-04
        31   3  9.999953E-04
        31   4  9.999953E-04
        31   5  9.999953E-04
        31   6  9.999953E-04
        31   7  9.999953E-04
        31   8  9.999953E-04
        32   1  9.999953E-04
        32   2  9.999953E-04
        32   3  9.999953E-04
        32   4  9.999953E-04
        32   5  9.999953E-04
        32   6  9.999953E-04
        32   7  9.999953E-04
        32   8  9.999953E-04
