
 displacements (vx,vy,vz) for set NALL and time  0.1000000E+01

         1 -4.472988E-05 -2.567119E-04 -6.302289E-21
         2 -4.470016E-05 -2.545918E-04  3.269380E-21
         3 -4.151310E-05 -2.545248E-04 -1.249870E-21
         4 -4.161803E-05 -2.566823E-04  1.154744E-21
         5 -4.472071E-05 -2.556242E-04 -2.448455E-21
         6 -4.305166E-05 -2.545821E-04 -1.087825E-20
         7 -4.158829E-05 -2.555607E-04 -5.585123E-21
         8 -4.306122E-05 -2.567085E-04 -8.053430E-21
         9 -3.915165E-05 -2.540293E-04 -1.134892E-21
        10 -3.936049E-05 -2.564121E-04  2.580804E-22
        11 -4.022813E-05 -2.543453E-04  3.987011E-21
        12 -3.927071E-05 -2.551620E-04  9.621765E-21
        13 -4.037586E-05 -2.565890E-04  5.644681E-21
        14 -3.780887E-05 -2.527748E-04  1.720536E-22
        15 -3.796851E-05 -2.557798E-04 -2.812414E-21
        16 -3.840262E-05 -2.535464E-04 -1.364517E-20
        17 -3.797456E-05 -2.541942E-04 -1.829062E-20
        18 -3.852841E-05 -2.561397E-04  7.954169E-21
        19 -3.785482E-05 -2.501354E-04 -2.911676E-22
        20 -3.693521E-05 -2.551715E-04  1.085261E-21
        21 -3.788133E-05 -2.512526E-04  2.141405E-20
        22 -3.734515E-05 -2.525811E-04  5.241016E-21
        23 -3.756657E-05 -2.554418E-04  1.540541E-20
        24 -3.274367E-05 -2.398495E-04 -1.720536E-21
        25 -3.388544E-05 -2.553007E-04  8.668853E-22
        26 -3.642837E-05 -2.462613E-04 -3.441071E-21
        27 -3.364777E-05 -2.494338E-04 -2.641684E-20
        28 -3.580400E-05 -2.550121E-04  5.346895E-21
        29 -2.459158E-05 -2.338345E-04  2.369045E-21
        30 -2.706772E-05 -2.557729E-04 -1.763549E-21
        31 -2.932036E-05 -2.355231E-04  1.514071E-20
        32 -2.617858E-05 -2.459789E-04 -1.498190E-20
        33 -3.083647E-05 -2.556114E-04 -3.568126E-20
        34 -1.263914E-05 -2.294333E-04 -1.174596E-21
        35 -1.755254E-05 -2.570596E-04  4.896909E-22
        36 -1.927238E-05 -2.317550E-04  2.189051E-20
        37 -1.635992E-05 -2.444474E-04  1.985233E-21
        38 -2.256833E-05 -2.562378E-04 -1.680831E-21
        39  4.282895E-06 -2.223977E-04 -1.667596E-21
        40 -5.968509E-06 -2.620987E-04 -5.823352E-22
        41 -4.778373E-06 -2.263648E-04  1.450544E-20
        42  4.458413E-07 -2.397060E-04  2.371692E-20
        43 -1.268226E-05 -2.594898E-04 -5.823352E-21
        44 -4.471173E-05 -2.526109E-04 -6.217503E-21
        45 -4.135166E-05 -2.527045E-04  3.765740E-21
        46 -4.470124E-05 -2.536210E-04 -2.333632E-20
        47 -4.294331E-05 -2.526617E-04 -1.133837E-20
        48 -4.144181E-05 -2.535499E-04  1.918066E-20
        49 -3.884540E-05 -2.522838E-04  1.340033E-22
        50 -3.996714E-05 -2.526046E-04  2.246623E-20
        51 -3.899378E-05 -2.531405E-04 -4.513097E-21
        52 -3.765359E-05 -2.509489E-04  5.624828E-22
        53 -3.784483E-05 -2.518757E-04  1.660979E-20
        54 -3.779595E-05 -2.512783E-04  1.733771E-21
        55 -3.826183E-05 -2.425059E-04  1.588187E-21
        56 -3.758292E-05 -2.483030E-04  2.689330E-20
        57 -3.818885E-05 -2.472526E-04  6.352747E-21
        58 -2.969316E-05 -2.100991E-04  1.760240E-21
        59 -3.679121E-05 -2.261080E-04  1.450544E-20
        60 -3.109549E-05 -2.266836E-04  8.470329E-21
        61 -1.874159E-05 -2.085393E-04 -3.123434E-21
        62 -2.383011E-05 -2.097239E-04  1.807886E-20
        63 -2.182209E-05 -2.198405E-04  4.552802E-21
        64 -8.069437E-06 -2.018544E-04  4.102816E-21
        65 -1.357043E-05 -2.054881E-04 -2.038173E-20
        66 -1.036431E-05 -2.144155E-04  5.770412E-21
        67  1.319853E-05 -1.861867E-04  1.482308E-21
        68 -1.465613E-07 -1.941716E-04 -5.399835E-21
        69  8.191947E-06 -2.109805E-04 -1.050850E-20
        70 -4.121888E-05 -2.599855E-04  8.387611E-22
        71 -4.450635E-05 -2.598511E-04 -2.076223E-21
        72 -4.145905E-05 -2.582837E-04  3.196226E-21
        73 -4.271406E-05 -2.599193E-04  4.632211E-21
        74 -4.466325E-05 -2.582387E-04 -8.979873E-21
        75 -4.047212E-05 -2.634933E-04 -3.169756E-21
        76 -4.382519E-05 -2.631734E-04  1.164670E-21
        77 -4.088433E-05 -2.617387E-04  5.889526E-22
        78 -4.201099E-05 -2.633245E-04  1.252682E-20
        79 -4.422155E-05 -2.615110E-04 -2.294268E-20
        80 -3.943525E-05 -2.668142E-04  1.998468E-21
        81 -4.269278E-05 -2.663586E-04 -1.330106E-21
        82 -3.998062E-05 -2.651973E-04 -8.139457E-21
        83 -4.098390E-05 -2.665776E-04  2.555657E-20
        84 -4.330234E-05 -2.648045E-04 -5.942466E-21
        85 -3.824201E-05 -2.696640E-04 -1.975307E-21
        86 -4.129499E-05 -2.691550E-04  2.564260E-21
        87 -3.884837E-05 -2.683076E-04 -2.369045E-20
        88 -3.976825E-05 -2.693985E-04  1.507454E-20
        89 -4.200936E-05 -2.678176E-04  2.580804E-20
        90 -3.704712E-05 -2.719417E-04  6.352747E-22
        91 -3.989602E-05 -2.714720E-04  6.551270E-22
        92 -3.763532E-05 -2.708717E-04 -1.081290E-20
        93 -3.854960E-05 -2.716970E-04 -3.220049E-20
        94 -4.058021E-05 -2.703710E-04  8.483564E-21
        95 -3.600534E-05 -2.737440E-04 -4.731473E-22
        96 -3.876061E-05 -2.733986E-04 -4.466775E-22
        97 -3.649970E-05 -2.728871E-04  5.446157E-21
        98 -3.752056E-05 -2.735617E-04 -4.718238E-21
        99 -3.928510E-05 -2.724705E-04 -2.263166E-21
       100 -3.525244E-05 -2.753525E-04  1.730462E-21
       101 -3.807660E-05 -2.751859E-04 -1.158053E-21
       102 -3.559016E-05 -2.745486E-04  5.843204E-21
       103 -3.681301E-05 -2.752660E-04 -1.193787E-20
       104 -3.836274E-05 -2.742876E-04 -2.105009E-20
       105 -3.484775E-05 -2.771599E-04 -1.237462E-21
       106 -3.785127E-05 -2.771550E-04 -1.239530E-21
       107 -3.500940E-05 -2.762065E-04 -3.348427E-21
       108 -3.646233E-05 -2.771685E-04  2.229417E-20
       109 -3.791857E-05 -2.761313E-04 -4.264943E-21
       110 -3.884740E-05 -2.601239E-04  2.809105E-21
       111 -3.916968E-05 -2.582058E-04  2.984468E-21
       112 -3.994206E-05 -2.600501E-04  1.158053E-21
       113 -3.788657E-05 -2.640038E-04  2.878589E-21
       114 -3.841707E-05 -2.620776E-04  8.622531E-21
       115 -3.911032E-05 -2.637087E-04 -2.067290E-20
       116 -3.661169E-05 -2.675583E-04 -2.934837E-21
       117 -3.727697E-05 -2.658461E-04  4.592507E-21
       118 -3.798744E-05 -2.671305E-04 -3.519819E-20
       119 -3.519384E-05 -2.704904E-04 -4.003554E-22
       120 -3.591081E-05 -2.691131E-04  7.272572E-21
       121 -3.671714E-05 -2.700144E-04 -3.087038E-20
       122 -3.377300E-05 -2.727045E-04  2.028247E-21
       123 -3.447413E-05 -2.716863E-04  1.953470E-20
       124 -3.544280E-05 -2.722657E-04  1.719874E-20
       125 -3.248931E-05 -2.742889E-04 -1.158053E-21
       126 -3.310232E-05 -2.735617E-04  2.064643E-21
       127 -3.431512E-05 -2.739749E-04  1.433339E-20
       128 -3.151541E-05 -2.755345E-04 -1.015778E-21
       129 -3.195116E-05 -2.749254E-04 -5.207929E-21
       130 -3.347317E-05 -2.754352E-04  2.323385E-20
       131 -3.098692E-05 -2.769262E-04  4.182225E-21
       132 -3.118449E-05 -2.761707E-04  2.331988E-20
       133 -3.303118E-05 -2.770855E-04  8.424007E-21
       134 -3.707364E-05 -2.604216E-04 -2.031556E-21
       135 -3.761356E-05 -2.580453E-04 -1.078644E-20
       136 -3.792294E-05 -2.602248E-04  7.821820E-21
       137 -3.563236E-05 -2.649692E-04 -1.330106E-21
       138 -3.640505E-05 -2.627474E-04  6.154224E-22
       139 -3.675201E-05 -2.644077E-04  1.250697E-20
       140 -3.394175E-05 -2.688744E-04  3.532061E-21
       141 -3.480601E-05 -2.670220E-04  9.707792E-21
       142 -3.527660E-05 -2.681340E-04  3.130051E-21
       143 -3.215592E-05 -2.719244E-04 -8.271806E-22
       144 -3.305440E-05 -2.705139E-04  8.830980E-21
       145 -3.367588E-05 -2.711200E-04 -1.885972E-21
       146 -3.036592E-05 -2.740482E-04  1.063754E-21
       147 -3.125633E-05 -2.731016E-04 -1.551791E-20
       148 -3.206938E-05 -2.732916E-04 -1.630538E-20
       149 -2.866144E-05 -2.753007E-04 -1.144818E-21
       150 -2.949451E-05 -2.747738E-04  8.715175E-21
       151 -3.058511E-05 -2.747161E-04 -1.864134E-20
       152 -2.719907E-05 -2.758949E-04  1.323489E-21
       153 -2.787936E-05 -2.756531E-04  3.427836E-21
       154 -2.939498E-05 -2.756631E-04  1.001881E-20
       155 -2.627403E-05 -2.763613E-04 -6.763029E-21
       156 -2.664580E-05 -2.760791E-04 -3.112846E-20
       157 -2.876798E-05 -2.766816E-04 -1.024380E-20
       158 -3.516446E-05 -2.612814E-04  1.184523E-21
       159 -3.611814E-05 -2.582804E-04  7.490948E-21
       160 -3.621310E-05 -2.607404E-04 -1.717889E-20
       161 -3.312860E-05 -2.666263E-04 -3.709078E-21
       162 -3.415197E-05 -2.640750E-04 -1.631862E-20
       163 -3.446449E-05 -2.657032E-04 -2.339267E-20
       164 -3.110409E-05 -2.708973E-04  1.379686E-21
       165 -3.211421E-05 -2.688974E-04 -6.733250E-21
       166 -3.256644E-05 -2.698009E-04 -5.731700E-20
       167 -2.911630E-05 -2.740531E-04  1.532352E-21
       168 -3.010727E-05 -2.726152E-04  1.339205E-21
       169 -3.063648E-05 -2.729084E-04 -1.658332E-20
       170 -2.712258E-05 -2.761025E-04 -3.051311E-22
       171 -2.812175E-05 -2.752203E-04  1.465929E-20
       172 -2.870032E-05 -2.749905E-04 -4.816176E-20
       173 -2.508936E-05 -2.770292E-04  8.834289E-22
       174 -2.610881E-05 -2.767070E-04 -8.768114E-21
       175 -2.679100E-05 -2.760680E-04 -7.755645E-21
       176 -2.303869E-05 -2.768592E-04  3.374897E-22
       177 -2.405952E-05 -2.770725E-04  6.485096E-22
       178 -2.502325E-05 -2.762661E-04  1.085261E-21
       179 -2.124482E-05 -2.758920E-04  1.588187E-21
       180 -2.207514E-05 -2.764381E-04  1.004528E-20
       181 -2.363541E-05 -2.760841E-04 -1.797298E-20
       182 -3.164573E-05 -2.629727E-04 -7.874759E-22
       183 -3.274110E-05 -2.593312E-04  5.691003E-22
       184 -3.368611E-05 -2.620513E-04  1.316872E-20
       185 -2.960973E-05 -2.689773E-04  1.080298E-21
       186 -3.060568E-05 -2.661823E-04  1.726672E-20
       187 -3.153196E-05 -2.677275E-04  3.451990E-20
       188 -2.775276E-05 -2.734765E-04 -1.340033E-21
       189 -2.865239E-05 -2.714014E-04  1.502160E-21
       190 -2.951247E-05 -2.721368E-04  2.430588E-20
       191 -2.606216E-05 -2.766963E-04  8.735027E-22
       192 -2.689659E-05 -2.752375E-04 -1.250035E-20
       193 -2.759045E-05 -2.753382E-04 -1.220919E-20
       194 -2.437365E-05 -2.787245E-04  1.720536E-22
       195 -2.522791E-05 -2.778629E-04  1.265255E-20
       196 -2.566916E-05 -2.773662E-04 -8.357833E-21
       197 -2.251448E-05 -2.794660E-04 -1.975307E-21
       198 -2.347306E-05 -2.792719E-04 -5.181459E-21
       199 -2.364445E-05 -2.781717E-04  2.235828E-20
       200 -2.047759E-05 -2.786823E-04  2.703226E-21
       201 -2.151761E-05 -2.792850E-04  6.539690E-21
       202 -2.148193E-05 -2.776960E-04  3.442395E-20
       203 -1.823338E-05 -2.762043E-04 -1.098496E-21
       204 -1.937929E-05 -2.776412E-04  1.098496E-20
       205 -1.935727E-05 -2.758154E-04 -6.061580E-21
       206 -2.582421E-05 -2.653016E-04 -6.650532E-22
       207 -2.653842E-05 -2.609693E-04  5.836586E-21
       208 -2.904884E-05 -2.640450E-04 -1.715242E-20
       209 -2.461013E-05 -2.716947E-04 -2.673448E-21
       210 -2.518193E-05 -2.687908E-04 -8.139457E-21
       211 -2.728029E-05 -2.703275E-04 -2.504041E-20
       212 -2.372505E-05 -2.761923E-04  8.007108E-22
       213 -2.412786E-05 -2.741404E-04 -1.360547E-20
       214 -2.581233E-05 -2.748510E-04 -9.304128E-21
       215 -2.298337E-05 -2.794078E-04 -2.646978E-23
       216 -2.334263E-05 -2.779441E-04  1.839650E-20
       217 -2.452630E-05 -2.780748E-04  8.324746E-21
       218 -2.224418E-05 -2.814871E-04  1.912442E-21
       219 -2.262573E-05 -2.805923E-04 -1.360547E-20
       220 -2.324294E-05 -2.801250E-04  2.407426E-20
       221 -2.136632E-05 -2.822803E-04 -3.507246E-22
       222 -2.184420E-05 -2.820782E-04  8.470329E-22
       223 -2.177668E-05 -2.808648E-04  4.446923E-20
       224 -2.015398E-05 -2.811726E-04  1.164670E-21
       225 -2.079538E-05 -2.820160E-04 -1.535247E-21
       226 -2.000430E-05 -2.798245E-04  1.921375E-20
       227 -1.889792E-05 -2.769170E-04 -2.398824E-22
       228 -1.943672E-05 -2.794673E-04 -7.213015E-22
       229 -1.821167E-05 -2.766312E-04  1.455838E-22
       230 -1.820324E-05 -2.680130E-04  6.882143E-22
       231 -1.781883E-05 -2.634968E-04  2.805797E-21
       232 -2.207325E-05 -2.666013E-04  9.026195E-21
       233 -1.860438E-05 -2.742862E-04  9.132074E-22
       234 -1.835810E-05 -2.715228E-04  8.046813E-21
       235 -2.168313E-05 -2.730398E-04  2.988438E-20
       236 -1.929322E-05 -2.785933E-04  1.469073E-21
       237 -1.896572E-05 -2.766025E-04  1.397604E-20
       238 -2.149829E-05 -2.774549E-04  3.546950E-21
       239 -1.985248E-05 -2.817653E-04 -9.661470E-22
       240 -1.957683E-05 -2.803056E-04 -1.506130E-20
       241 -2.142433E-05 -2.806413E-04 -1.786710E-20
       242 -2.041618E-05 -2.839289E-04 -2.011703E-21
       243 -2.012887E-05 -2.829728E-04  1.090555E-20
       244 -2.135485E-05 -2.827724E-04  1.598775E-20
       245 -2.111833E-05 -2.849650E-04  2.329341E-21
       246 -2.074978E-05 -2.846080E-04 -1.651714E-20
       247 -2.118083E-05 -2.836741E-04 -1.376429E-20
       248 -2.153835E-05 -2.840413E-04 -3.639595E-21
       249 -2.137276E-05 -2.848796E-04  1.058791E-21
       250 -2.080301E-05 -2.825514E-04 -4.229871E-20
       251 -2.222579E-05 -2.784723E-04  2.077878E-21
       252 -2.193611E-05 -2.822157E-04 -1.392310E-20
       253 -2.030708E-05 -2.775124E-04 -2.329341E-21
       254 -1.163978E-05 -2.710145E-04  1.932294E-21
       255 -8.749577E-06 -2.671135E-04  1.905824E-21
       256 -1.402042E-05 -2.696319E-04 -2.922264E-20
       257 -1.366584E-05 -2.763925E-04 -2.104347E-21
       258 -1.281206E-05 -2.739372E-04 -1.858179E-20
       259 -1.590265E-05 -2.753335E-04 -1.312901E-20
       260 -1.531604E-05 -2.806173E-04  2.686683E-21
       261 -1.454724E-05 -2.786574E-04 -8.311511E-21
       262 -1.718697E-05 -2.796263E-04 -1.942882E-20
       263 -1.667278E-05 -2.837710E-04 -5.691003E-22
       264 -1.601564E-05 -2.823190E-04  5.770412E-21
       265 -1.826759E-05 -2.827814E-04 -2.911676E-21
       266 -1.803049E-05 -2.859886E-04  2.646978E-21
       267 -1.733014E-05 -2.850003E-04 -4.393983E-21
       268 -1.935152E-05 -2.849761E-04  1.371135E-20
       269 -1.968354E-05 -2.871401E-04 -1.310254E-21
       270 -1.880035E-05 -2.867144E-04  1.048203E-20
       271 -2.064420E-05 -2.860509E-04  7.464478E-21
       272 -2.171621E-05 -2.871761E-04  5.293956E-22
       273 -2.053983E-05 -2.873904E-04 -1.175258E-20
       274 -2.254748E-05 -2.857377E-04 -1.762887E-20
       275 -2.738374E-05 -2.837698E-04 -2.117582E-22
       276 -2.460994E-05 -2.860034E-04  1.323489E-20
       277 -2.392725E-05 -2.810338E-04 -1.514071E-20
       278 -3.454050E-05 -2.788581E-04 -5.279894E-21
       279 -3.788057E-05 -2.789105E-04 -1.525941E-21
       280 -3.467097E-05 -2.779652E-04 -2.277063E-20
       281 -3.626618E-05 -2.789082E-04 -4.577618E-21
       282 -3.786018E-05 -2.780053E-04  8.379753E-21
       283 -3.427948E-05 -2.808994E-04 -1.092292E-21
       284 -3.786947E-05 -2.808062E-04  2.997703E-21
       285 -3.440715E-05 -2.798132E-04 -1.119672E-20
       286 -3.616266E-05 -2.808572E-04  2.164318E-21
       287 -3.787987E-05 -2.798780E-04  4.227927E-22
       288 -3.037790E-05 -2.783740E-04  2.756166E-21
       289 -3.067028E-05 -2.775932E-04  2.296915E-20
       290 -3.256110E-05 -2.786850E-04  1.319519E-20
       291 -2.984071E-05 -2.804754E-04  3.788487E-22
       292 -3.011471E-05 -2.794065E-04  1.598775E-20
       293 -3.219437E-05 -2.807981E-04  1.730131E-20
       294 -2.518539E-05 -2.771413E-04  0.000000E+00
       295 -2.564100E-05 -2.766684E-04 -1.072026E-20
       296 -2.785941E-05 -2.778990E-04 -1.578922E-20
       297 -2.408107E-05 -2.791344E-04  4.579272E-21
       298 -2.456652E-05 -2.775372E-04 -2.130817E-21
       299 -2.736290E-05 -2.800686E-04 -2.293606E-20
       300 -1.865197E-05 -2.745837E-04  1.905824E-21
       301 -2.000676E-05 -2.751736E-04  4.632211E-21
       302 -2.185551E-05 -2.756467E-04 -9.635000E-21
       303 -1.655430E-05 -2.706325E-04 -9.343832E-21
       304 -1.746886E-05 -2.735539E-04 -1.969352E-20
       305 -2.067679E-05 -2.764390E-04 -3.075788E-20
       306 -1.678218E-05 -2.676299E-04 -3.666064E-21
       307 -1.706665E-05 -2.735102E-04 -6.643915E-21
       308 -1.654933E-05 -2.722335E-04 -9.370302E-21
       309 -1.812707E-05 -2.465882E-04  6.088049E-22
       310 -1.747634E-05 -2.586248E-04 -4.446923E-21
       311 -1.452880E-05 -2.584546E-04  3.128728E-20
       312 -2.001364E-05 -2.628415E-04  6.352747E-22
       313 -1.911205E-05 -2.711080E-04 -1.792004E-20
       314 -1.798347E-05 -2.644442E-04  1.249374E-20
       315 -2.443581E-05 -2.450793E-04  3.136669E-21
       316 -2.208224E-05 -2.525942E-04 -2.646978E-21
       317 -2.168019E-05 -2.462292E-04 -2.972556E-20
       318 -2.658560E-05 -2.586423E-04  4.268252E-22
       319 -2.312749E-05 -2.697618E-04  4.566037E-22
       320 -2.264096E-05 -2.608465E-04  1.879354E-20
       321 -3.043708E-05 -2.383480E-04 -2.646978E-22
       322 -2.850648E-05 -2.473036E-04  1.694066E-21
       323 -2.726105E-05 -2.420037E-04  3.970467E-21
       324 -3.798967E-05 -2.518277E-04 -3.096964E-21
       325 -3.402570E-05 -2.653292E-04  1.868766E-20
       326 -3.173091E-05 -2.556474E-04 -1.016440E-20
       327 -4.725766E-05 -2.224656E-04 -5.293956E-23
       328 -4.203846E-05 -2.441322E-04 -1.705977E-20
       329 -3.608521E-05 -2.305704E-04  4.690445E-20
       330 -1.334536E-05 -2.932131E-04 -8.999725E-22
       331 -1.332225E-05 -2.972913E-04  5.241016E-21
       332 -1.884304E-05 -2.892513E-04  2.133464E-20
       333 -1.358748E-05 -2.943390E-04  1.630538E-20
       334 -1.766920E-05 -2.919774E-04 -1.694066E-21
       335 -6.480463E-06 -2.995324E-04  2.382280E-22
       336 -5.576746E-06 -3.031532E-04  1.124966E-22
       337 -9.973828E-06 -2.964066E-04 -2.525217E-20
       338 -5.970879E-06 -3.013943E-04 -7.702706E-21
       339 -8.466021E-06 -3.004230E-04 -3.896352E-20
       340 -1.139740E-06 -3.056624E-04  2.594038E-21
       341 -9.902026E-08 -3.088389E-04 -2.249931E-22
       342 -3.741349E-06 -3.026476E-04 -2.980497E-20
       343 -6.307934E-07 -3.071969E-04  2.276401E-21
       344 -2.618583E-06 -3.059853E-04 -2.652272E-20
       345  3.331068E-06 -3.115149E-04  1.164670E-21
       346  4.403904E-06 -3.142917E-04 -3.838118E-22
       347  1.160374E-06 -3.086010E-04  2.408750E-21
       348  3.885737E-06 -3.129053E-04 -7.623297E-21
       349  2.286376E-06 -3.115701E-04 -2.646978E-23
       350  7.151638E-06 -3.173573E-04 -4.896909E-22
       351  8.198812E-06 -3.197432E-04  4.327809E-21
       352  5.303149E-06 -3.144292E-04  2.321400E-20
       353  7.664209E-06 -3.186029E-04  7.782115E-21
       354  6.428438E-06 -3.170118E-04  7.461831E-20
       355  1.014055E-05 -3.234391E-04 -8.073283E-22
       356  1.106787E-05 -3.254458E-04 -1.402898E-21
       357  8.717289E-06 -3.203524E-04  6.670384E-21
       358  1.065394E-05 -3.243932E-04  6.961552E-21
       359  9.838002E-06 -3.225985E-04  3.838118E-20
       360  1.175534E-05 -3.296600E-04 -1.799945E-21
       361  1.187083E-05 -3.313696E-04  2.058025E-21
       362  1.087164E-05 -3.265177E-04  4.616330E-20
       363  1.156218E-05 -3.314255E-04 -8.999725E-21
       364  1.237154E-05 -3.282079E-04  1.911118E-20
       365  1.246630E-05 -3.355641E-04  5.082198E-21
       366  7.443052E-06 -3.449685E-04 -4.658681E-21
       367  1.080476E-05 -3.334891E-04 -9.476181E-21
       368  9.853988E-06 -3.395686E-04  1.842297E-20
       369  1.190251E-05 -3.367920E-04  3.155198E-20
       370 -1.403652E-05 -2.910002E-04 -9.264423E-23
       371 -1.719359E-05 -2.889069E-04  3.356368E-20
       372 -1.388769E-05 -2.919145E-04  1.053497E-20
       373 -7.569522E-06 -2.966546E-04  2.276401E-21
       374 -1.049479E-05 -2.937618E-04  1.244080E-20
       375 -7.040006E-06 -2.980624E-04 -2.382280E-21
       376 -2.280639E-06 -3.027025E-04 -2.038173E-21
       377 -4.745313E-06 -2.996734E-04 -1.609363E-20
       378 -1.723988E-06 -3.041459E-04  1.111731E-20
       379  2.172532E-06 -3.087487E-04  1.323489E-22
       380  4.763375E-08 -3.057300E-04  1.837003E-20
       381  2.756733E-06 -3.101304E-04 -1.127613E-20
       382  6.027257E-06 -3.147668E-04  8.867376E-22
       383  4.195286E-06 -3.117611E-04 -9.476181E-21
       384  6.574479E-06 -3.160919E-04  1.450544E-20
       385  9.084843E-06 -3.207168E-04 -4.235165E-22
       386  7.723968E-06 -3.177550E-04 -8.311511E-21
       387  9.593916E-06 -3.221036E-04 -1.810533E-20
       388  1.108941E-05 -3.262397E-04  1.244080E-21
       389  1.035654E-05 -3.235497E-04  4.219283E-20
       390  1.124631E-05 -3.281048E-04  1.482308E-20
       391  1.402286E-05 -3.301105E-04 -2.210227E-21
       392  1.226328E-05 -3.283004E-04  1.069379E-20
       393  1.338433E-05 -3.325954E-04 -9.687939E-21
       394 -1.330146E-05 -2.892750E-04  7.808585E-22
       395 -1.586559E-05 -2.874462E-04  2.747563E-20
       396 -1.371004E-05 -2.901859E-04  5.241016E-21
       397 -8.016406E-06 -2.941380E-04  1.217610E-21
       398 -1.066074E-05 -2.915109E-04 -3.885764E-20
       399 -7.841777E-06 -2.953802E-04  5.293956E-21
       400 -3.251585E-06 -2.999177E-04 -1.098496E-21
       401 -5.598986E-06 -2.969453E-04 -3.155198E-20
       402 -2.776949E-06 -3.012912E-04 -4.393983E-21
       403  1.080269E-06 -3.059995E-04  2.991085E-21
       404 -1.044845E-06 -3.029490E-04  2.011703E-20
       405  1.622292E-06 -3.073694E-04  5.241016E-21
       406  5.069077E-06 -3.120482E-04 -5.082198E-21
       407  3.111921E-06 -3.090454E-04 -6.093343E-20
       408  5.537258E-06 -3.134183E-04  2.752857E-21
       409  8.639149E-06 -3.177378E-04  1.733771E-21
       410  6.890847E-06 -3.149794E-04  1.937588E-20
       411  8.814519E-06 -3.192346E-04 -7.146840E-21
       412  1.173476E-05 -3.225169E-04 -2.554334E-21
       413  1.017505E-05 -3.203106E-04  3.282253E-20
       414  1.138075E-05 -3.243118E-04  3.705769E-22
       415  1.534028E-05 -3.258634E-04  8.867376E-22
       416  1.336408E-05 -3.243514E-04 -2.091113E-20
       417  1.472819E-05 -3.278315E-04 -1.207022E-20
       418 -1.252742E-05 -2.869028E-04 -1.588187E-21
       419 -1.460616E-05 -2.851940E-04  5.929231E-21
       420 -1.292415E-05 -2.881753E-04 -9.529121E-22
       421 -8.354996E-06 -2.915123E-04 -3.176374E-22
       422 -1.044170E-05 -2.890360E-04  1.111731E-21
       423 -8.204057E-06 -2.928399E-04  1.111731E-20
       424 -4.173928E-06 -2.971962E-04  2.408750E-21
       425 -6.266227E-06 -2.942706E-04 -3.351074E-20
       426 -3.718448E-06 -2.985517E-04 -1.508777E-20
       427  0.000000E+00 -3.032770E-04 -2.924911E-21
       428 -2.082960E-06 -3.002233E-04 -3.494011E-21
       429  5.391159E-07 -3.046368E-04  1.127613E-20
       430  4.159508E-06 -3.093322E-04  8.337981E-22
       431  2.080367E-06 -3.063273E-04 -2.932852E-20
       432  4.609752E-06 -3.106860E-04 -1.646420E-20
       433  8.291664E-06 -3.149441E-04 -3.970467E-23
       434  6.231458E-06 -3.122248E-04 -2.736975E-20
       435  8.449299E-06 -3.163185E-04  4.023406E-21
       436  1.237857E-05 -3.195057E-04  1.310254E-21
       437  1.034032E-05 -3.173852E-04  1.461132E-20
       438  1.204923E-05 -3.209186E-04 -9.105604E-21
       439  1.640195E-05 -3.227233E-04 -4.341044E-21
       440  1.440006E-05 -3.212393E-04 -1.847591E-20
       441  1.588934E-05 -3.241658E-04  1.413486E-20
       442 -1.175134E-05 -2.838833E-04 -1.747005E-21
       443 -1.334619E-05 -2.820688E-04  8.735027E-21
       444 -1.213024E-05 -2.854802E-04  7.676236E-21
       445 -8.690413E-06 -2.887273E-04 -6.088049E-22
       446 -1.021931E-05 -2.861115E-04  7.993873E-21
       447 -8.505326E-06 -2.901338E-04 -4.658681E-21
       448 -5.096617E-06 -2.944965E-04 -6.088049E-22
       449 -6.932699E-06 -2.915240E-04 -2.366398E-20
       450 -4.630358E-06 -2.958437E-04 -7.729176E-21
       451 -1.080939E-06 -3.005833E-04  2.302871E-21
       452 -3.123278E-06 -2.975245E-04 -4.187519E-20
       453 -5.382236E-07 -3.019276E-04  9.317362E-21
       454  3.246170E-06 -3.066524E-04 -1.971999E-21
       455  1.047237E-06 -3.036338E-04  1.429368E-21
       456  3.709096E-06 -3.079907E-04  2.117582E-22
       457  7.938614E-06 -3.123750E-04 -1.535247E-21
       458  5.567741E-06 -3.095994E-04 -3.414602E-20
       459  8.132707E-06 -3.136361E-04  7.411538E-22
       460  1.302166E-05 -3.171882E-04 -3.705769E-22
       461  1.050288E-05 -3.149674E-04  2.646978E-22
       462  1.270786E-05 -3.182527E-04 -1.990527E-20
       463  1.746641E-05 -3.205492E-04  9.661470E-22
       464  1.543834E-05 -3.190342E-04  2.562275E-20
       465  1.691523E-05 -3.215118E-04  3.705769E-22
       466 -1.100713E-05 -2.802038E-04  1.297019E-21
       467 -1.201383E-05 -2.781333E-04  1.122319E-20
       468 -1.133901E-05 -2.820965E-04  6.723324E-21
       469 -9.130541E-06 -2.858144E-04  8.470329E-22
       470 -1.037410E-05 -2.829410E-04 -1.694066E-21
       471 -8.861579E-06 -2.872581E-04 -4.235165E-21
       472 -6.067448E-06 -2.918428E-04 -2.646978E-22
       473 -7.781247E-06 -2.888192E-04  9.793818E-21
       474 -5.570888E-06 -2.931532E-04  1.529953E-20
       475 -2.179061E-06 -2.979006E-04  4.195460E-21
       476 -4.218677E-06 -2.948725E-04 -2.435220E-21
       477 -1.625400E-06 -2.992430E-04 -1.799945E-21
       478  2.277060E-06 -3.039585E-04  6.485096E-22
       479 -4.535362E-08 -3.009293E-04 -1.074673E-20
       480  2.773338E-06 -3.053187E-04 -6.140989E-21
       481  7.479569E-06 -3.099803E-04  1.985233E-22
       482  4.719093E-06 -3.069810E-04  9.211483E-21
       483  7.757832E-06 -3.111860E-04 -6.829203E-21
       484  1.366704E-05 -3.155844E-04 -2.646978E-22
       485  1.030656E-05 -3.128534E-04 -1.291725E-20
       486  1.337704E-05 -3.163226E-04  2.964615E-21
       487  1.879094E-05 -3.194981E-04 -3.838118E-22
       488  1.654613E-05 -3.176703E-04  3.875176E-20
       489  1.808127E-05 -3.198666E-04 -2.276401E-21
       490 -1.167560E-05 -2.769756E-04 -1.323489E-21
       491 -1.035571E-05 -2.730549E-04  3.282253E-21
       492 -1.114687E-05 -2.784079E-04  1.889942E-20
       493 -1.020712E-05 -2.832342E-04  2.501394E-21
       494 -1.088047E-05 -2.801341E-04  2.302871E-20
       495 -9.653654E-06 -2.844985E-04 -1.217610E-20
       496 -7.208440E-06 -2.893441E-04  7.940934E-22
       497 -8.782595E-06 -2.863351E-04  4.764560E-21
       498 -6.624497E-06 -2.905588E-04  1.519365E-20
       499 -3.348046E-06 -2.952200E-04 -6.088049E-22
       500 -5.337664E-06 -2.922878E-04 -9.635000E-21
       501 -2.768010E-06 -2.965620E-04 -4.605742E-21
       502  1.133671E-06 -3.011200E-04 -7.146840E-22
       503 -1.166959E-06 -2.981545E-04  1.752299E-20
       504  1.719598E-06 -3.025728E-04  3.123434E-21
       505  6.394462E-06 -3.073013E-04 -6.088049E-22
       506  3.705717E-06 -3.041560E-04 -3.070494E-21
       507  6.956842E-06 -3.086672E-04 -8.735027E-21
       508  1.296857E-05 -3.136494E-04 -1.694066E-21
       509  9.767117E-06 -3.104412E-04 -1.789357E-20
       510  1.349785E-05 -3.147773E-04  1.762887E-20
       511  2.035952E-05 -3.196730E-04  4.738091E-21
       512  1.801546E-05 -3.175631E-04 -4.764560E-22
       513  1.943349E-05 -3.193381E-04 -8.735027E-21
       514 -1.168871E-05 -2.755601E-04  3.606507E-21
       515 -1.149864E-05 -2.702750E-04  2.911676E-20
       516 -1.142326E-05 -2.753570E-04 -8.576209E-21
       517 -1.110918E-05 -2.813718E-04 -1.356576E-21
       518 -1.237912E-05 -2.786607E-04 -3.155198E-20
       519 -1.071662E-05 -2.823552E-04  8.973255E-21
       520 -8.256430E-06 -2.870326E-04  2.779327E-22
       521 -9.907105E-06 -2.841860E-04  2.477571E-20
       522 -7.721229E-06 -2.881413E-04  9.158544E-21
       523 -4.434753E-06 -2.925112E-04  3.573420E-22
       524 -6.473442E-06 -2.897705E-04 -4.531626E-20
       525 -3.909282E-06 -2.938679E-04 -1.259962E-20
       526  6.528089E-08 -2.980381E-04  3.705769E-22
       527 -2.311399E-06 -2.952627E-04  4.637505E-20
       528  6.114909E-07 -2.996374E-04  1.037615E-20
       529  5.439711E-06 -3.038704E-04 -4.367514E-22
       530  2.558320E-06 -3.009536E-04  1.921706E-20
       531  5.865488E-06 -3.055349E-04 -1.535247E-21
       532  1.283396E-05 -3.099518E-04 -1.323489E-23
       533  8.224077E-06 -3.067044E-04  1.789357E-20
       534  1.315215E-05 -3.127325E-04 -7.676236E-21
       535  2.543675E-05 -3.238520E-04 -3.599890E-21
       536  1.686711E-05 -3.155019E-04  1.524659E-20
       537  2.300791E-05 -3.210584E-04  1.259962E-20
       538  3.105127E-05 -3.521172E-04  4.473393E-21
       539  2.447026E-05 -3.456958E-04  3.202843E-21
       540  2.034272E-05 -3.291187E-04  3.507246E-22
       541  2.965472E-05 -3.437791E-04  4.102816E-20
       542  2.771647E-05 -3.484967E-04 -3.779885E-20
       543  2.113543E-05 -3.367744E-04 -2.654257E-20
       544  2.127352E-05 -3.266648E-04 -3.314016E-20
       545  2.006762E-05 -3.406136E-04 -3.454306E-21
       546  1.857883E-05 -3.295334E-04 -2.390552E-21
       547  2.181490E-05 -3.428940E-04  6.050992E-20
       548  1.899575E-05 -3.344268E-04  7.517417E-21
       549  1.924952E-05 -3.294768E-04 -1.147134E-20
       550  1.785761E-05 -3.363444E-04  2.210227E-21
       551  1.880449E-05 -3.296033E-04  2.064643E-21
       552  1.872413E-05 -3.389784E-04 -7.014492E-21
       553  1.790973E-05 -3.317605E-04  1.418780E-20
       554  1.843454E-05 -3.294849E-04 -3.308722E-22
       555  1.973442E-05 -3.304183E-04 -7.093901E-21
       556  2.190256E-05 -3.295648E-04 -1.323489E-22
       557  1.779916E-05 -3.324427E-04  4.759266E-20
       558  2.085983E-05 -3.300390E-04 -1.932294E-20
       559  2.004412E-05 -3.297355E-04 -1.463779E-20
       560  2.566064E-05 -3.281401E-04  3.017555E-21
       561  2.664023E-05 -3.290398E-04 -1.369811E-21
       562  2.263920E-05 -3.294344E-04 -7.702706E-21
       563  2.607794E-05 -3.286579E-04  9.264423E-22
       564  2.417729E-05 -3.293212E-04  3.838118E-21