
 displacements (vx,vy,vz) for set NALL and time  0.1000000E+01

         1  1.591264E-04  0.000000E+00  0.000000E+00
         2  1.591264E-04  3.000000E-01  5.500000E+02
         3  1.591264E-04  0.000000E+00  0.000000E+00
         4  1.591265E-04  1.869230E-01  5.500000E+02
         5  1.591265E-04  0.000000E+00  0.000000E+00
         6  2.841395E-04  1.713287E-01  5.500000E+02
         7  2.841395E-04  0.000000E+00  0.000000E+00
         8  2.841392E-04  9.000000E-02  5.500000E+02
         9  2.841392E-04  0.000000E+00  0.000000E+00
        10  1.250128E-04  0.000000E+00  0.000000E+00
        11  1.250126E-04  2.000000E-01  5.500000E+02
        12  1.250126E-04  0.000000E+00  0.000000E+00
        13  1.250129E-04  1.707538E-01  5.500000E+02
        14  1.250129E-04  0.000000E+00  0.000000E+00

 temperatures for set NALL and time  0.1000000E+01

         1  0.000000E+00
         2  5.500000E+02
         3  0.000000E+00
         4  5.500000E+02
         5  0.000000E+00
         6  5.500000E+02
         7  0.000000E+00
         8  5.500000E+02
         9  0.000000E+00
        10  0.000000E+00
        11  5.500000E+02
        12  0.000000E+00
        13  5.500000E+02
        14  0.000000E+00
