
 displacements (vx,vy,vz) for set GLOBAL and time  0.1000000E+01

        10  0.000000E+00  0.000000E+00  0.000000E+00
        11  1.103448E-07  1.092057E-21 -1.447897E-20
        12  2.206897E-07  0.000000E+00  0.000000E+00
        13  2.206897E-07  1.103448E-07  1.194180E-20
        14  2.206897E-07  2.206897E-07  3.265468E-20
        15  1.103448E-07  2.206897E-07  2.386582E-20
        16  3.263972E-20  2.206897E-07  0.000000E+00
        17  2.083616E-20  1.103448E-07 -1.965381E-21
        18  1.103448E-07  1.103448E-07  4.669189E-21
        19  5.517241E-08  7.299788E-22 -1.275678E-20
        20  1.257434E-20  5.517241E-08 -5.182287E-21
        21  5.517241E-08  5.517241E-08 -7.605512E-21
        22  1.655172E-07 -7.959939E-22 -1.110397E-20
        23  1.103448E-07  5.517241E-08 -5.455256E-21
        24  2.206897E-07  5.517241E-08  3.541987E-21
        25  1.655172E-07  5.517241E-08 -2.250220E-21
        26  2.206897E-07  1.655172E-07  2.178129E-20
        27  1.655172E-07  1.103448E-07  7.702706E-21
        28  1.655172E-07  2.206897E-07  2.831451E-20
        29  1.655172E-07  1.655172E-07  1.795681E-20
        30  5.517241E-08  2.206897E-07  1.640547E-20
        31  1.103448E-07  1.655172E-07  1.426266E-20
        32  2.695416E-20  1.655172E-07  2.995572E-21
        33  5.517241E-08  1.655172E-07  1.003659E-20
        34  5.517241E-08  1.103448E-07  1.340860E-21
        35  8.957539E-21 -2.951114E-21 -1.724138E-07
        36  1.103448E-07 -8.549350E-21 -1.724138E-07
        37  2.206897E-07 -1.196512E-20 -1.724138E-07
        38  2.206897E-07  1.103448E-07 -1.724138E-07
        39  2.206897E-07  2.206897E-07 -1.724138E-07
        40  1.103448E-07  2.206897E-07 -1.724138E-07
        41  2.401966E-20  2.206897E-07 -1.724138E-07
        42  1.751927E-20  1.103448E-07 -1.724138E-07
        43  1.103448E-07  1.103448E-07 -1.724138E-07
        44  9.542870E-21 -1.233306E-20 -3.448276E-07
        45  1.103448E-07 -1.815248E-20 -3.448276E-07
        46  2.206897E-07 -2.435029E-20 -3.448276E-07
        47  2.206897E-07  1.103448E-07 -3.448276E-07
        48  2.206897E-07  2.206897E-07 -3.448276E-07
        49  1.103448E-07  2.206897E-07 -3.448276E-07
        50  1.974646E-20  2.206897E-07 -3.448276E-07
        51  1.467605E-20  1.103448E-07 -3.448276E-07
        52  1.103448E-07  1.103448E-07 -3.448276E-07
        53  5.517241E-08 -1.556754E-20 -3.448276E-07
        54  1.135719E-20  5.517241E-08 -3.448276E-07
        55  5.517241E-08  5.517241E-08 -3.448276E-07
        56  1.655172E-07 -2.133795E-20 -3.448276E-07
        57  1.103448E-07  5.517241E-08 -3.448276E-07
        58  2.206897E-07  5.517241E-08 -3.448276E-07
        59  1.655172E-07  5.517241E-08 -3.448276E-07
        60  2.206897E-07  1.655172E-07 -3.448276E-07
        61  1.655172E-07  1.103448E-07 -3.448276E-07
        62  1.655172E-07  2.206897E-07 -3.448276E-07
        63  1.655172E-07  1.655172E-07 -3.448276E-07
        64  5.517241E-08  2.206897E-07 -3.448276E-07
        65  1.103448E-07  1.655172E-07 -3.448276E-07
        66  1.751307E-20  1.655172E-07 -3.448276E-07
        67  5.517241E-08  1.655172E-07 -3.448276E-07
        68  5.517241E-08  1.103448E-07 -3.448276E-07
        69  5.929231E-21 -2.280692E-20 -5.172414E-07
        70  1.103448E-07 -2.843588E-20 -5.172414E-07
        71  2.206897E-07 -3.392847E-20 -5.172414E-07
        72  2.206897E-07  1.103448E-07 -5.172414E-07
        73  2.206897E-07  2.206897E-07 -5.172414E-07
        74  1.103448E-07  2.206897E-07 -5.172414E-07
        75  1.680666E-20  2.206897E-07 -5.172414E-07
        76  1.160765E-20  1.103448E-07 -5.172414E-07
        77  1.103448E-07  1.103448E-07 -5.172414E-07
        78  2.851615E-21 -3.315706E-20 -6.896552E-07
        79  1.103448E-07 -3.900984E-20 -6.896552E-07
        80  2.206897E-07 -4.403698E-20 -6.896552E-07
        81  2.206897E-07  1.103448E-07 -6.896552E-07
        82  2.206897E-07  2.206897E-07 -6.896552E-07
        83  1.103448E-07  2.206897E-07 -6.896552E-07
        84  1.334077E-20  2.206897E-07 -6.896552E-07
        85  8.456267E-21  1.103448E-07 -6.896552E-07
        86  1.103448E-07  1.103448E-07 -6.896552E-07
        87  5.517241E-08 -3.600386E-20 -6.896552E-07
        88  5.859747E-21  5.517241E-08 -6.896552E-07
        89  5.517241E-08  5.517241E-08 -6.896552E-07
        90  1.655172E-07 -4.174024E-20 -6.896552E-07
        91  1.103448E-07  5.517241E-08 -6.896552E-07
        92  2.206897E-07  5.517241E-08 -6.896552E-07
        93  1.655172E-07  5.517241E-08 -6.896552E-07
        94  2.206897E-07  1.655172E-07 -6.896552E-07
        95  1.655172E-07  1.103448E-07 -6.896552E-07
        96  1.655172E-07  2.206897E-07 -6.896552E-07
        97  1.655172E-07  1.655172E-07 -6.896552E-07
        98  5.517241E-08  2.206897E-07 -6.896552E-07
        99  1.103448E-07  1.655172E-07 -6.896552E-07
       100  1.095518E-20  1.655172E-07 -6.896552E-07
       101  5.517241E-08  1.655172E-07 -6.896552E-07
       102  5.517241E-08  1.103448E-07 -6.896552E-07
       103  3.507363E-22 -4.386568E-20 -8.620690E-07
       104  1.103448E-07 -4.942404E-20 -8.620690E-07
       105  2.206897E-07 -5.507948E-20 -8.620690E-07
       106  2.206897E-07  1.103448E-07 -8.620690E-07
       107  2.206897E-07  2.206897E-07 -8.620690E-07
       108  1.103448E-07  2.206897E-07 -8.620690E-07
       109  1.046053E-20  2.206897E-07 -8.620690E-07
       110  5.518639E-21  1.103448E-07 -8.620690E-07
       111  1.103448E-07  1.103448E-07 -8.620690E-07
       112 -1.191140E-21 -5.488790E-20 -1.034483E-06
       113  1.103448E-07 -6.045656E-20 -1.034483E-06
       114  2.206897E-07 -6.703472E-20 -1.034483E-06
       115  2.206897E-07  1.103448E-07 -1.034483E-06
       116  2.206897E-07  2.206897E-07 -1.034483E-06
       117  1.103448E-07  2.206897E-07 -1.034483E-06
       118  7.474404E-21  2.206897E-07 -1.034483E-06
       119  2.407923E-21  1.103448E-07 -1.034483E-06
       120  1.103448E-07  1.103448E-07 -1.034483E-06
       121  5.517241E-08 -5.757166E-20 -1.034483E-06
       122  8.470329E-22  5.517241E-08 -1.034483E-06
       123  5.517241E-08  5.517241E-08 -1.034483E-06
       124  1.655172E-07 -6.359695E-20 -1.034483E-06
       125  1.103448E-07  5.517241E-08 -1.034483E-06
       126  2.206897E-07  5.517241E-08 -1.034483E-06
       127  1.655172E-07  5.517241E-08 -1.034483E-06
       128  2.206897E-07  1.655172E-07 -1.034483E-06
       129  1.655172E-07  1.103448E-07 -1.034483E-06
       130  1.655172E-07  2.206897E-07 -1.034483E-06
       131  1.655172E-07  1.655172E-07 -1.034483E-06
       132  5.517241E-08  2.206897E-07 -1.034483E-06
       133  1.103448E-07  1.655172E-07 -1.034483E-06
       134  4.824117E-21  1.655172E-07 -1.034483E-06
       135  5.517241E-08  1.655172E-07 -1.034483E-06
       136  5.517241E-08  1.103448E-07 -1.034483E-06

 forces (fx,fy,fz) for set GLOBAL and time  0.1000000E+01

        10 -1.227958E-14 -4.943005E-15  1.600109E-14
        11  1.425497E-17 -1.119743E-16  1.942890E-16
        12  2.608610E-16  9.143533E-15  1.368350E-14
        13  7.300853E-16  4.558780E-16  1.346145E-15
        14  6.452551E-16  4.805623E-16  9.159340E-16
        15  2.299584E-16  8.914590E-16  5.551115E-16
        16  8.607869E-17  6.747942E-16 -1.959544E-14
        17  4.778585E-16 -2.909937E-16  4.163336E-17
        18  1.515668E-15 -1.050318E-15 -6.300516E-15
        19  3.422327E-16  2.061880E-19  8.333333E-01
        20 -1.173727E-16  5.861057E-16  8.333333E-01
        21 -4.962876E-16 -3.553610E-17  1.666667E+00
        22 -1.042846E-15  7.162652E-17  8.333333E-01
        23  1.235304E-15 -1.183296E-16  1.666667E+00
        24 -4.753813E-16 -1.240897E-16  8.333333E-01
        25  1.238082E-15  7.021553E-16  1.666667E+00
        26  1.425122E-15 -4.682214E-16  8.333333E-01
        27  1.269803E-16 -8.740360E-16  1.666667E+00
        28  2.275859E-16  6.876209E-16  8.333333E-01
        29  2.816689E-16  2.947908E-15  1.666667E+00
        30  2.655005E-17  1.844122E-17  8.333333E-01
        31  1.052796E-17 -8.569670E-16  1.666667E+00
        32  6.581547E-16 -2.662589E-16  8.333333E-01
        33 -4.169363E-16  1.198592E-15  1.666667E+00
        34 -6.980472E-16  9.021252E-16  1.666667E+00
        35 -7.347869E-16 -4.642317E-16  1.373901E-15
        36  2.843817E-16  5.566346E-16  0.000000E+00
        37  1.022939E-16  3.917135E-16  1.318390E-15
        38  1.536454E-15 -3.467295E-16  1.013079E-15
        39  5.517394E-17  1.382480E-15  0.000000E+00
        40 -4.952661E-16 -1.603882E-15  1.665335E-16
        41 -1.363851E-16  9.757657E-16  1.054712E-15
        42  1.912316E-16 -3.672992E-16 -1.346145E-15
        43 -2.015598E-15 -3.505957E-16  5.537237E-15
        44  7.266474E-16 -7.878773E-16 -6.300516E-15
        45 -5.728973E-16  1.422190E-16 -2.303713E-15
        46  3.680538E-16  5.888949E-16 -8.326673E-16
        47 -2.544700E-15  1.284039E-15  4.649059E-15
        48 -2.879361E-16 -1.201399E-15  1.082467E-15
        49  8.604636E-16  2.867259E-15  3.053113E-15
        50  4.110935E-16 -9.054630E-16  4.274359E-15
        51 -9.873266E-16  3.680297E-16 -1.568190E-15
        52  1.667947E-15  2.722764E-15  5.523360E-15
        53  8.365745E-17  4.563172E-16 -5.516421E-16
        54 -6.764309E-16  4.477577E-16 -2.234324E-15
        55  1.992899E-15  1.418382E-15  2.137179E-15
        56 -7.671473E-16 -1.952220E-15 -2.380041E-15
        57  3.283359E-15  4.335285E-16 -1.387779E-16
        58 -6.706318E-15 -2.594712E-15 -1.040834E-16
        59  6.668699E-16  5.560879E-16 -3.774758E-15
        60  9.806867E-16 -1.417571E-15 -2.248202E-15
        61  1.435569E-15 -4.822753E-15  4.961309E-16
        62 -1.153321E-15 -5.560109E-16 -2.498002E-16
        63 -1.138370E-15  3.259706E-16  9.714451E-16
        64 -2.901189E-15 -3.066499E-15  1.207368E-15
        65  3.046398E-16 -3.376164E-15  1.124101E-15
        66  2.729008E-15 -1.131160E-16  2.359224E-16
        67  6.953613E-16  3.992336E-15  3.233525E-15
        68  1.060407E-15  4.111019E-16 -1.592476E-15
        69 -8.629683E-16  4.805262E-16 -1.082467E-15
        70 -5.335544E-16 -9.510712E-16  3.511080E-15
        71  1.787310E-15  1.762488E-15 -1.360023E-15
        72  4.304635E-16 -2.092063E-15 -9.034440E-15
        73  9.624194E-16  7.924094E-16 -8.881784E-16
        74 -4.878846E-16  2.481261E-15 -3.663736E-15
        75  9.033334E-16  8.350500E-16 -3.996803E-15
        76  2.771923E-15 -8.425871E-16  3.191891E-15
        77  1.247214E-15 -1.091569E-15 -1.740275E-14
        78  1.462865E-15  9.331815E-17 -1.387779E-17
        79  2.555138E-15  2.871357E-16  2.858824E-15
        80  7.873776E-16  1.362464E-15 -6.425416E-15
        81 -6.225907E-16  9.691033E-16  5.814793E-15
        82  1.035971E-15  1.090664E-15 -4.746203E-15
        83  1.250285E-15 -2.616751E-16 -9.159340E-16
        84 -2.156401E-15  1.491953E-16  5.023759E-15
        85 -3.843362E-16  1.661203E-17 -1.054712E-15
        86 -2.036477E-15  2.977296E-15  4.288236E-15
        87 -2.412685E-16  5.577387E-16 -1.713907E-15
        88  2.911674E-16  3.430537E-16 -4.302114E-16
        89 -2.540211E-15  1.677747E-15  2.053913E-15
        90 -1.780662E-15 -1.619891E-15 -2.196160E-15
        91 -8.526810E-16 -2.332415E-15  2.206568E-15
        92 -1.968495E-15 -3.650686E-16 -8.777701E-16
        93  2.601187E-15 -1.291811E-15  4.718448E-16
        94  7.879168E-16 -8.786790E-16 -1.332268E-15
        95  1.883806E-15 -1.175862E-16 -3.604755E-15
        96 -3.899952E-15 -1.520292E-15  1.831868E-15
        97 -6.289166E-16  2.194239E-15  1.004752E-14
        98  2.031818E-18  1.022360E-15  5.689893E-16
        99 -2.485645E-15 -9.132960E-17 -3.858025E-15
       100 -1.432957E-15  6.534543E-16  4.163336E-17
       101 -3.935083E-16  1.816240E-15 -6.730727E-15
       102 -3.323531E-16 -2.508578E-17 -3.528428E-15
       103 -8.671529E-16  9.458574E-16 -7.327472E-15
       104  1.936957E-15  1.692347E-15 -8.465451E-16
       105 -1.459955E-15 -1.477044E-15 -4.510281E-15
       106  2.448908E-15  9.004659E-16 -1.054712E-15
       107  1.889697E-16 -5.094967E-17  1.026956E-14
       108 -7.081455E-16 -2.773970E-16 -3.885781E-16
       109 -5.471797E-16 -2.560540E-17  1.998401E-15
       110 -7.066276E-16 -1.175636E-15 -8.187895E-15
       111 -1.501724E-15 -3.479752E-15  4.676814E-15
       112  2.870950E-16 -2.155614E-15  6.161738E-15
       113  1.168136E-15 -1.084038E-15  3.823331E-15
       114  1.148901E-15  7.118872E-16 -3.226586E-15
       115 -4.968722E-16 -1.559940E-16  1.193490E-15
       116  1.351392E-16  7.940739E-17 -1.998401E-15
       117  8.224560E-16  8.603325E-16 -4.996004E-16
       118 -2.246457E-16  3.376728E-16  1.887379E-15
       119 -2.868893E-16  2.080748E-16  2.178813E-15
       120  1.092635E-16  3.217592E-16  4.010681E-15
       121  6.737412E-16 -1.978339E-15 -8.333333E-01
       122 -2.260944E-16  1.690489E-15 -8.333333E-01
       123  1.946896E-15 -7.015077E-16 -1.666667E+00
       124  5.625181E-17  5.543004E-16 -8.333333E-01
       125  1.919218E-15 -3.061805E-15 -1.666667E+00
       126  3.833120E-16  7.814307E-17 -8.333333E-01
       127  7.471631E-16 -1.156949E-15 -1.666667E+00
       128 -5.323148E-16 -1.221520E-15 -8.333333E-01
       129  3.331777E-16 -1.075164E-15 -1.666667E+00
       130  3.447311E-16 -3.613905E-16 -8.333333E-01
       131  2.211603E-15 -3.695743E-15 -1.666667E+00
       132 -1.942297E-16  5.019443E-16 -8.333333E-01
       133  1.276303E-15  1.656477E-16 -1.666667E+00
       134 -5.187256E-16 -6.656614E-18 -8.333333E-01
       135 -6.793270E-16 -1.017047E-16 -1.666667E+00
       136  1.367811E-15  1.097211E-15 -1.666667E+00

 stresses (elem, integ.pnt.,sxx,syy,szz,sxy,sxz,syz) for set OUT_CONT and time  0.1000000E+01

        17   1  1.332268E-13  2.824407E-13 -2.000000E+01  2.274353E-13  6.195222E-14 -1.850729E-13
        17   2  1.456613E-13  1.545430E-13 -2.000000E+01  1.169452E-13 -1.902625E-14  1.847821E-13
        17   3  7.815970E-14  6.572520E-14 -2.000000E+01  7.411336E-14 -1.315406E-14 -3.489198E-15
        17   4 -3.019807E-14 -4.263256E-14 -2.000000E+01  2.028992E-14  1.188912E-14 -1.122413E-13
        17   5  4.618528E-14 -4.085621E-14 -2.000000E+01 -2.735944E-14 -2.170653E-14  8.497726E-14
        17   6 -1.598721E-14 -1.065814E-13 -2.000000E+01 -4.011683E-14 -1.740561E-14 -2.936742E-14
        17   7 -5.861978E-14 -9.592327E-14 -2.000000E+01 -4.796366E-14 -3.869090E-14 -6.585862E-14
        17   8  7.283063E-14  1.421085E-14 -2.000000E+01 -3.039663E-14 -2.255336E-14 -4.085270E-14
        17   9  1.776357E-14 -3.019807E-14 -2.000000E+01 -1.586522E-14 -2.013871E-14 -8.199616E-14
        18   1  6.181722E-13  1.119105E-13 -2.000000E+01  1.989395E-13 -1.151803E-13  1.846367E-14
        18   2  3.641532E-13  1.048051E-13 -2.000000E+01  1.041432E-13  3.492878E-14 -1.497448E-14
        18   3  1.847411E-13  1.403322E-13 -2.000000E+01  1.371719E-13  1.449489E-13  2.616899E-14
        18   4  4.085621E-14 -7.638334E-14 -2.000000E+01  3.060587E-14 -6.709978E-14 -7.196471E-15
        18   5 -4.973799E-14 -3.907985E-14 -2.000000E+01 -9.422981E-16 -4.524308E-15  2.214392E-15
        18   6 -9.769963E-14  3.552714E-15 -2.000000E+01  5.527257E-15  4.986646E-14  2.362478E-14
        18   7 -1.332268E-13 -5.861978E-14 -2.000000E+01 -3.933615E-14 -3.968599E-14 -3.518275E-14
        18   8 -6.039613E-14  1.953993E-14 -2.000000E+01 -7.035473E-15 -6.934781E-14  7.996079E-15
        18   9  2.309264E-14  6.572520E-14 -2.000000E+01 -2.622606E-14 -6.338710E-14  1.511986E-14
        19   1  2.380318E-13  4.618528E-14 -2.000000E+01 -6.989074E-15 -5.179324E-14 -2.486054E-14
        19   2  1.598721E-13 -2.486900E-14 -2.000000E+01  4.872266E-14  1.442570E-13 -6.833013E-14
        19   3  1.456613E-13  9.592327E-14 -2.000000E+01  5.545521E-14 -6.847370E-14  1.802752E-14
        19   4  1.776357E-14 -1.421085E-14 -2.000000E+01 -1.056589E-14 -2.298137E-14  6.251480E-15
        19   5 -1.421085E-14 -5.684342E-14 -2.000000E+01  2.527108E-14  7.210469E-14 -4.156414E-14
        19   6 -3.907985E-14  0.000000E+00 -2.000000E+01  2.788798E-14 -1.914735E-14  2.762282E-14
        19   7 -5.684342E-14  8.881784E-15 -2.000000E+01 -4.600866E-15  2.475153E-15  2.660514E-14
        19   8 -6.394885E-14 -2.486900E-14 -2.000000E+01  9.090750E-15  3.925348E-15 -1.948136E-14
        19   9 -7.993606E-14 -2.131628E-14 -2.000000E+01  8.799983E-15  3.198432E-14  2.704129E-14
        20   1  7.105427E-15 -2.398082E-13 -2.000000E+01  1.136702E-14  1.817291E-14 -2.203525E-13
        20   2  6.217249E-14 -8.348877E-14 -2.000000E+01  2.736382E-14  2.544207E-14 -3.911380E-15
        20   3  8.881784E-14  8.881784E-14 -2.000000E+01  6.580810E-14 -4.361498E-15  6.859988E-14
        20   4 -2.131628E-14 -1.456613E-13 -2.000000E+01  3.044400E-14  1.686446E-14 -1.216288E-13
        20   5  1.421085E-14 -6.217249E-14 -2.000000E+01  3.896271E-14  1.527605E-14 -5.669201E-15
        20   6  4.440892E-14  4.796163E-14 -2.000000E+01  6.513170E-14  2.033203E-14  5.451872E-14
        20   7 -7.460699E-14 -6.572520E-14 -2.000000E+01  8.104837E-15  1.264834E-14 -3.594330E-14
        20   8 -4.973799E-14 -5.329071E-14 -2.000000E+01  1.235758E-14  1.061298E-14 -2.151672E-14
        20   9 -4.263256E-14 -1.776357E-14 -2.000000E+01  2.500592E-14  4.448728E-14  2.762282E-14
        21   1 -6.572520E-14 -6.927792E-14 -2.000000E+01  5.100696E-14 -3.438708E-15  1.744599E-14
        21   2 -7.283063E-14 -1.243450E-14 -2.000000E+01  9.660833E-14 -2.580046E-16  1.288096E-13
        21   3 -4.973799E-14 -8.171241E-14 -2.000000E+01  5.990968E-14  1.049170E-14 -2.015012E-13
        21   4 -1.598721E-14  3.552714E-14 -2.000000E+01 -2.051269E-14  9.560035E-15 -1.277211E-14
        21   5 -3.375078E-14  6.572520E-14 -2.000000E+01 -5.479321E-15  1.694523E-14  7.359636E-14
        21   6  3.197442E-14  7.283063E-14 -2.000000E+01 -1.856381E-14  3.550582E-14 -1.154127E-13
        21   7 -3.730349E-14 -1.421085E-14 -2.000000E+01 -1.991308E-14  2.402597E-14 -6.774860E-14
        21   8 -6.572520E-14 -5.329071E-15 -2.000000E+01 -3.440924E-14  3.338091E-14 -6.106097E-15
        21   9  4.085621E-14  6.927792E-14 -2.000000E+01 -2.682984E-14  5.995972E-14 -4.623188E-14
        22   1 -9.769963E-14 -6.394885E-14 -2.000000E+01  9.275452E-14 -1.268623E-13 -1.229921E-15
        22   2 -1.545430E-13 -6.927792E-14 -2.000000E+01  7.472700E-14 -1.855182E-14 -8.250045E-15
        22   3 -1.474376E-13  0.000000E+00 -2.000000E+01  7.022011E-14  2.098716E-13 -4.298403E-15
        22   4  2.664535E-14 -1.421085E-14 -2.000000E+01 -6.687630E-15 -4.760221E-14  6.697230E-15
        22   5  4.440892E-14  8.881784E-15 -2.000000E+01 -2.326132E-15  1.484456E-14  1.900793E-15
        22   6  4.085621E-14  3.907985E-14 -2.000000E+01 -1.686446E-14  1.141259E-13 -2.880751E-14
        22   7 -8.881784E-15 -3.552714E-14 -2.000000E+01 -3.867195E-14  5.562455E-14  1.939367E-14
        22   8  5.329071E-14  0.000000E+00 -2.000000E+01 -1.642831E-14  7.554206E-14  1.599216E-14
        22   9  5.506706E-14  7.105427E-15 -2.000000E+01 -4.070731E-14  4.309526E-14 -5.117491E-14
        23   1 -3.730349E-14  7.105427E-15 -2.000000E+01  6.978396E-14 -2.864050E-14 -3.198432E-15
        23   2  2.842171E-14  1.598721E-14 -2.000000E+01  1.366603E-14 -8.286846E-15 -3.779965E-15
        23   3 -2.842171E-14  1.065814E-14 -2.000000E+01  2.311594E-14 -1.017683E-14 -9.595295E-15
        23   4 -2.842171E-14  1.243450E-14 -2.000000E+01  3.111202E-14 -1.105994E-14  1.219057E-14
        23   5  1.065814E-14 -1.776357E-15 -2.000000E+01  3.489198E-15  1.920923E-15 -2.751471E-15
        23   6  5.329071E-15  1.776357E-14 -2.000000E+01  3.779965E-15 -6.353620E-15  7.538308E-15
        23   7 -1.421085E-14  3.197442E-14 -2.000000E+01 -1.599216E-15  1.599216E-15  2.762282E-14
        23   8 -1.953993E-14 -2.842171E-14 -2.000000E+01 -4.070731E-15  1.439294E-14 -2.907665E-16
        23   9  1.953993E-14  2.309264E-14 -2.000000E+01 -1.541063E-14  1.163066E-15  2.093519E-14
        24   1  1.421085E-14  6.927792E-14 -2.000000E+01  6.213381E-14 -2.995570E-14  9.304529E-15
        24   2  4.973799E-14  1.065814E-14 -2.000000E+01  3.666791E-14  7.826221E-15 -8.432229E-15
        24   3  1.421085E-14  8.881784E-14 -2.000000E+01  1.745813E-14 -1.692391E-14  1.511986E-14
        24   4 -1.776357E-14  1.598721E-14 -2.000000E+01  4.224763E-14 -3.542041E-15  2.347754E-15
        24   5  5.329071E-15 -2.486900E-14 -2.000000E+01  2.558745E-14  5.389991E-15 -1.283399E-14
        24   6 -7.105427E-15  5.329071E-15 -2.000000E+01  6.106097E-15 -6.418485E-15  8.744617E-15
        24   7 -3.375078E-14  3.552714E-15 -2.000000E+01  1.042745E-14  1.725019E-14  8.722996E-15
        24   8 -3.375078E-14 -2.131628E-14 -2.000000E+01  1.293911E-14 -3.779965E-15 -1.366603E-14
        24   9  3.552714E-15 -1.598721E-14 -2.000000E+01 -7.559929E-15  2.035366E-15  9.595295E-15
        25   1  3.019807E-14  1.598721E-14 -2.000000E+01 -3.483058E-14  1.174885E-14  9.159145E-15
        25   2 -1.598721E-14 -3.019807E-14 -2.000000E+01 -2.996690E-15 -9.622492E-15 -8.708457E-14
        25   3  2.131628E-14  1.953993E-14 -2.000000E+01  1.781134E-14  4.107329E-15 -7.734389E-14
        25   4 -7.105427E-15 -8.881784E-15 -2.000000E+01 -8.853957E-15  9.312605E-15  2.172939E-14
        25   5 -3.197442E-14 -1.243450E-14 -2.000000E+01 -2.763442E-16 -9.102607E-15 -5.680776E-14
        25   6 -2.131628E-14 -1.776357E-15 -2.000000E+01  1.266277E-14  3.424583E-15 -6.135174E-14
        25   7  3.552714E-15 -3.552714E-15 -2.000000E+01  1.009963E-14  2.634157E-14  8.868379E-15
        25   8 -7.105427E-15  2.131628E-14 -2.000000E+01 -5.241977E-15  1.078556E-14 -4.681341E-14
        25   9 -1.776357E-15  1.421085E-14 -2.000000E+01 -3.148522E-16  2.060783E-14 -7.036550E-14
        26   1 -3.552714E-14  4.085621E-14 -2.000000E+01 -3.336982E-14  1.924964E-14 -1.744599E-15
        26   2 -2.309264E-14  2.486900E-14 -2.000000E+01  8.043181E-15 -6.526617E-14  6.396863E-15
        26   3 -1.065814E-14 -2.486900E-14 -2.000000E+01 -1.404024E-14 -6.950411E-14 -1.570139E-14
        26   4 -1.776357E-14  8.881784E-15 -2.000000E+01 -1.455650E-14  3.743078E-14 -7.269163E-16
        26   5 -2.131628E-14  3.552714E-15 -2.000000E+01  9.995099E-16 -6.886786E-15 -1.239663E-14
        26   6 -1.598721E-14 -1.776357E-14 -2.000000E+01 -5.906195E-15 -2.645975E-14 -3.140278E-14
        26   7  1.598721E-14  5.329071E-15 -2.000000E+01 -3.431340E-15  4.363681E-14  1.264834E-14
        26   8  0.000000E+00  5.329071E-15 -2.000000E+01 -1.413852E-14  3.009433E-14 -1.831829E-14
        26   9  1.776357E-15  2.486900E-14 -2.000000E+01 -3.089394E-15 -1.744599E-15 -2.558745E-14
        27   1 -3.730349E-14  3.019807E-14 -2.000000E+01 -4.094172E-15  1.256201E-14  3.198432E-15
        27   2 -7.105427E-15  3.375078E-14 -2.000000E+01  9.805045E-15 -3.042135E-15  3.169355E-14
        27   3 -7.283063E-14 -3.730349E-14 -2.000000E+01  5.040403E-15  1.365511E-14 -1.511986E-14
        27   4 -3.730349E-14  1.776357E-15 -2.000000E+01 -3.055320E-15 -8.733806E-15 -4.216115E-15
        27   5  8.881784E-15  2.131628E-14 -2.000000E+01  1.250069E-14 -3.624218E-14  2.951010E-14
        27   6 -3.375078E-14 -1.421085E-14 -2.000000E+01  4.359226E-15  5.422424E-15 -2.144403E-14
        27   7 -3.375078E-14  7.105427E-15 -2.000000E+01 -1.081045E-14 -2.687408E-14 -9.449912E-15
        27   8 -2.309264E-14 -1.421085E-14 -2.000000E+01  9.158237E-15 -7.225548E-14  4.783109E-14
        27   9  3.907985E-14  6.394885E-14 -2.000000E+01 -3.053957E-15  2.326132E-15 -1.628293E-14
        28   1 -6.039613E-14 -1.953993E-14 -2.000000E+01 -8.594386E-15  3.518275E-14  6.268429E-14
        28   2 -8.526513E-14 -7.638334E-14 -2.000000E+01  3.716650E-15  1.526524E-14  6.339280E-15
        28   3 -9.059420E-14 -7.105427E-14 -2.000000E+01  7.547794E-15  2.616899E-14  3.567391E-16
        28   4 -2.842171E-14 -2.131628E-14 -2.000000E+01  1.076580E-15 -5.524564E-15  6.196981E-14
        28   5 -1.421085E-14 -2.664535E-14 -2.000000E+01  7.850696E-15  4.590383E-15 -5.432953E-15
        28   6 -2.664535E-14 -2.842171E-14 -2.000000E+01  4.943031E-15  1.102751E-14 -1.686446E-14
        28   7 -5.151435E-14 -4.085621E-14 -2.000000E+01  1.391618E-15 -3.271123E-14  8.219693E-14
        28   8  2.131628E-14  8.881784E-15 -2.000000E+01  5.379181E-15 -8.286846E-15  2.762282E-15
        28   9  3.552714E-14  4.263256E-14 -2.000000E+01 -6.687630E-15  7.559929E-15 -1.453833E-14
        29   1  1.421085E-14  1.953993E-14 -2.000000E+01 -4.902473E-15  1.242677E-15 -7.530853E-14
        29   2 -1.065814E-14  2.309264E-14 -2.000000E+01 -2.517809E-14 -3.586328E-15 -6.047944E-14
        29   3 -3.730349E-14 -2.664535E-14 -2.000000E+01 -1.421709E-14  2.264280E-14  2.151672E-14
        29   4 -1.598721E-14 -7.105427E-15 -2.000000E+01 -1.781573E-15 -1.033915E-14 -5.260712E-14
        29   5 -1.776357E-14  1.243450E-14 -2.000000E+01 -1.633369E-14 -1.025760E-14 -5.070633E-14
        29   6 -2.131628E-14 -1.598721E-14 -2.000000E+01 -1.182681E-14 -1.631523E-14  7.290785E-15
        29   7 -1.243450E-14 -7.105427E-15 -2.000000E+01 -5.335429E-15 -1.669949E-15 -2.616899E-14
        29   8 -8.881784E-15  1.776357E-15 -2.000000E+01 -1.221737E-14  6.960071E-17 -4.070731E-14
        29   9  3.907985E-14  3.019807E-14 -2.000000E+01 -1.622251E-14 -3.519511E-14 -8.722996E-15
        30   1  8.881784E-15  1.953993E-14 -2.000000E+01 -3.023972E-14  5.604834E-14  6.220368E-15
        30   2  3.730349E-14  8.881784E-15 -2.000000E+01 -6.106097E-15  7.262203E-14  7.280077E-15
        30   3 -3.197442E-14 -6.572520E-14 -2.000000E+01 -2.791359E-14 -2.459152E-15 -2.298603E-15
        30   4 -1.421085E-14  7.105427E-15 -2.000000E+01 -1.715522E-14  2.799709E-14 -6.324820E-15
        30   5  2.309264E-14  2.131628E-14 -2.000000E+01  1.453833E-15  2.547571E-14 -2.896854E-15
        30   6  0.000000E+00 -1.776357E-14 -2.000000E+01 -1.482909E-14 -1.570139E-14  1.306287E-14
        30   7 -1.776357E-15 -8.881784E-15 -2.000000E+01 -1.526524E-14  1.896942E-14 -2.578293E-15
        30   8  3.019807E-14  2.664535E-14 -2.000000E+01 -6.542247E-15 -5.745730E-15 -2.267979E-14
        30   9  5.684342E-14  3.197442E-14 -2.000000E+01 -9.740678E-15 -1.818527E-14  2.733205E-14
        31   1 -3.019807E-14  1.598721E-14 -2.000000E+01 -1.235758E-14  1.860906E-14  1.163066E-14
        31   2 -5.329071E-15 -1.065814E-14 -2.000000E+01 -5.379181E-15  1.904521E-14  7.269163E-15
        31   3  1.776357E-14  2.309264E-14 -2.000000E+01 -1.889982E-14  1.744599E-14  9.886062E-15
        31   4 -1.065814E-14  1.598721E-14 -2.000000E+01 -9.595295E-15  4.055112E-14  4.921409E-15
        31   5  1.598721E-14  1.776357E-15 -2.000000E+01 -2.326132E-15  7.590870E-15 -3.914537E-15
        31   6 -8.881784E-15  5.329071E-15 -2.000000E+01 -1.860906E-14  4.191362E-14 -1.077998E-14
        31   7  2.309264E-14  5.329071E-15 -2.000000E+01 -4.361498E-15  6.106097E-14 -2.326132E-14
        31   8  3.375078E-14 -2.486900E-14 -2.000000E+01  2.762282E-15 -5.088414E-15 -1.017683E-14
        31   9 -3.552714E-15  8.881784E-15 -2.000000E+01 -1.671907E-14  7.036550E-14 -3.198432E-14
        32   1 -4.796163E-14 -1.776357E-15 -2.000000E+01  2.002717E-15  2.093902E-14  8.722996E-16
        32   2 -3.730349E-14 -1.953993E-14 -2.000000E+01  5.656493E-15  1.073083E-14  1.424756E-14
        32   3  1.243450E-14 -1.065814E-14 -2.000000E+01 -1.154176E-14  8.673639E-15  2.791359E-14
        32   4  0.000000E+00  1.065814E-14 -2.000000E+01 -1.076580E-15  7.735410E-15  1.630455E-14
        32   5  8.881784E-15 -3.552714E-15 -2.000000E+01 -5.233797E-15 -2.315321E-15  1.740573E-14
        32   6  1.421085E-14 -3.552714E-15 -2.000000E+01 -4.943031E-15 -1.019845E-14  1.717685E-14
        32   7  2.309264E-14  2.486900E-14 -2.000000E+01 -3.435138E-15  1.541567E-14  3.285662E-14
        32   8  3.552714E-14  2.131628E-14 -2.000000E+01 -2.035366E-15 -1.017683E-14  4.070731E-15
        32   9  1.598721E-14  2.664535E-14 -2.000000E+01  4.361498E-15 -3.023972E-14  2.326132E-15
        33   1 -1.598721E-14 -3.197442E-14 -2.000000E+01  1.456132E-14  2.175683E-14 -8.577612E-15
        33   2 -1.776357E-15  1.776357E-14 -2.000000E+01 -8.145472E-15  2.597294E-14 -6.992935E-14
        33   3 -1.243450E-14 -1.243450E-14 -2.000000E+01 -1.800293E-15  2.611173E-14 -7.152856E-14
        33   4  1.243450E-14  1.776357E-14 -2.000000E+01  5.226724E-15  1.712090E-14 -2.835514E-14
        33   5  1.776357E-15  7.105427E-15 -2.000000E+01 -2.312301E-14  3.710504E-14 -4.381413E-14
        33   6 -3.552714E-15 -1.776357E-14 -2.000000E+01 -7.421620E-15  2.200941E-14 -6.883897E-14
        33   7  4.263256E-14  1.030287E-13 -2.000000E+01 -2.434749E-14  1.240824E-14 -2.020827E-14
        33   8  0.000000E+00  2.309264E-14 -2.000000E+01 -5.935525E-14  4.439255E-14 -2.471515E-14
        33   9  1.953993E-14  2.842171E-14 -2.000000E+01 -3.413131E-14  5.145671E-15 -4.768571E-14
        34   1  1.776357E-15 -2.131628E-14 -2.000000E+01  2.210953E-15  1.812743E-14  3.198432E-15
        34   2 -5.329071E-15 -1.776357E-14 -2.000000E+01 -1.643111E-14  3.081216E-14 -1.250296E-14
        34   3 -1.776357E-14 -8.881784E-15 -2.000000E+01 -6.423954E-15 -5.087754E-16 -2.965818E-14
        34   4  1.243450E-14  5.329071E-15 -2.000000E+01  2.768721E-15  1.104372E-14 -4.143423E-15
        34   5  4.796163E-14  5.329071E-15 -2.000000E+01 -1.271460E-14  5.640945E-14 -9.579825E-15
        34   6  3.197442E-14  5.329071E-15 -2.000000E+01 -2.383642E-14  3.278392E-14 -1.497448E-14
        34   7  3.552714E-15  5.329071E-14 -2.000000E+01 -9.789282E-15 -7.378167E-15 -2.456977E-14
        34   8  4.973799E-14  2.131628E-14 -2.000000E+01 -2.354951E-14  7.821619E-14 -3.852656E-14
        34   9  6.394885E-14  4.796163E-14 -2.000000E+01 -5.364385E-14  4.477804E-14 -6.396863E-15
        35   1 -4.440892E-14 -3.552714E-15 -2.000000E+01 -1.134498E-14 -3.958972E-14  7.705313E-15
        35   2  1.065814E-14  2.131628E-14 -2.000000E+01  6.431466E-15 -9.247285E-14  4.594111E-14