    1C
    1UUSER                                                              
    1UDATE              04.march.2015                                   
    1UTIME              20:01:13                                        
    1UHOST                                                              
    1UPGM               CalculiX                                        
    1UDIR                                                               
    1UDBN                                                               
    1UMAT    1SI1                                                       
    1UMAT    2EL                                                        
    2C                            16                                     1
 -1         1 1.00000E+00 1.00000E+00-1.49012E-08
 -1         2 1.00000E+00 0.00000E+00-1.49012E-08
 -1         3 1.00000E+00 0.00000E+00 1.00000E+00
 -1         4 1.00000E+00 1.00000E+00 1.00000E+00
 -1         5-7.45058E-09 1.00000E+00-1.49012E-08
 -1         6-7.45058E-09 0.00000E+00-1.49012E-08
 -1         7-7.45058E-09 0.00000E+00 1.00000E+00
 -1         8-7.45058E-09 1.00000E+00 1.00000E+00
 -1         9 5.00000E-01 6.41421E-01 1.00000E+00
 -1        10 6.41421E-01 5.00000E-01 1.00000E+00
 -1        11 6.41421E-01 5.00000E-01 1.20000E+00
 -1        12 5.00000E-01 6.41421E-01 1.20000E+00
 -1        13 3.58579E-01 5.00000E-01 1.00000E+00
 -1        14 5.00000E-01 3.58579E-01 1.00000E+00
 -1        15 5.00000E-01 3.58579E-01 1.20000E+00
 -1        16 3.58579E-01 5.00000E-01 1.20000E+00
 -3
    3C                             2                                     1
 -1         1    1    0    2
 -2         1         2         3         4         5         6         7         8
 -1         2    1    0    2
 -2         9        10        11        12        13        14        15        16
 -3
    1PSTEP                         1           1           1          
  100CL  101 1.00000E-01          16                     0    1           1
 -4  DISP        4    1
 -5  D1          1    2    1    0
 -5  D2          1    2    2    0
 -5  D3          1    2    3    0
 -5  ALL         1    2    0    0    1ALL
 -1         1 0.00000E+00 0.00000E+00 0.00000E+00
 -1         2 0.00000E+00 0.00000E+00 0.00000E+00
 -1         3 3.71336E-07-3.70543E-07-1.73293E-06
 -1         4 3.71549E-07 3.72332E-07-1.73383E-06
 -1         5 0.00000E+00 0.00000E+00 0.00000E+00
 -1         6 0.00000E+00 0.00000E+00 0.00000E+00
 -1         7-3.71336E-07-3.70543E-07-1.73293E-06
 -1         8-3.71549E-07 3.72332E-07-1.73383E-06
 -1         9 2.70414E-14 4.03279E-06-2.73412E-06
 -1        10 2.01992E-06 2.01217E-06-2.73359E-06
 -1        11 2.02109E-06 2.01578E-06-1.22585E-05
 -1        12 0.00000E+00 4.03798E-06-1.22610E-05
 -1        13-2.01992E-06 2.01217E-06-2.73359E-06
 -1        14 2.67828E-14-9.29387E-09-2.73234E-06
 -1        15 0.00000E+00 0.00000E+00-1.22537E-05
 -1        16-2.02108E-06 2.01578E-06-1.22585E-05
 -3
    1PSTEP                         2           1           1          
  100CL  101 1.00000E-01          16                     0    1           1
 -4  STRESS      6    1
 -5  SXX         1    4    1    1
 -5  SYY         1    4    2    2
 -5  SZZ         1    4    3    3
 -5  SXY         1    4    1    2
 -5  SYZ         1    4    2    3
 -5  SZX         1    4    3    1
 -1         1-2.10057E-01-2.10057E-01-4.90123E-01 2.23907E-08 3.00726E-02 3.00094E-02
 -1         2-2.09948E-01-2.09948E-01-4.89868E-01-2.21829E-08-2.99281E-02 2.99922E-02
 -1         3 9.00007E-02 9.00334E-02-3.09889E-01 1.71815E-05-3.00009E-02 2.99922E-02
 -1         4 9.00120E-02 8.99759E-02-3.10092E-01 1.72284E-05 2.99999E-02 3.00094E-02
 -1         5-2.10057E-01-2.10057E-01-4.90123E-01-2.23907E-08 3.00726E-02-3.00094E-02
 -1         6-2.09948E-01-2.09948E-01-4.89868E-01 2.21829E-08-2.99281E-02-2.99922E-02
 -1         7 9.00007E-02 9.00334E-02-3.09889E-01-1.71838E-05-3.00009E-02-2.99922E-02
 -1         8 9.00120E-02 8.99759E-02-3.10092E-01-1.72261E-05 2.99999E-02-3.00094E-02
 -1         9-2.16757E-03-1.37522E-03-1.00029E+01 1.71078E-08 1.79306E-03-1.71784E-08
 -1        10-6.27705E-04 6.49436E-04-9.99979E+00 2.42379E-04 9.50169E-04 2.63259E-04
 -1        11-6.53467E-05-2.45865E-03-1.00006E+01-1.83142E-03-6.21451E-04-1.99344E-04
 -1        12 1.50523E-03 2.77488E-03-1.00006E+01-5.46743E-08 6.84027E-04-3.46662E-08
 -1        13-6.27547E-04 6.49525E-04-9.99979E+00-2.42379E-04 9.50169E-04-2.63192E-04
 -1        14 1.89367E-03 3.65554E-03-9.99439E+00-1.74163E-08 3.03952E-03-1.70740E-08
 -1        15-6.54919E-04-6.71095E-03-9.99827E+00 5.47007E-08 1.00531E-03-3.45617E-08
 -1        16-6.56924E-05-2.45878E-03-1.00006E+01 1.83142E-03-6.21451E-04 1.99377E-04
 -3
    1PSTEP                         3           1           1          
  100CL  101 1.00000E-01          16                     0    1           1
 -4  CONTACT     6    1
 -5  COPEN       1    4    1    1
 -5  CSLIP1      1    4    2    2
 -5  CSLIP2      1    4    3    3
 -5  CPRESS      1    4    1    2
 -5  CSHEAR1     1    4    2    3
 -5  CSHEAR2     1    4    3    1
 -1         1 0.00000E+00 0.00000E+00 0.00000E+00 0.00000E+00 0.00000E+00 0.00000E+00
 -1         2 0.00000E+00 0.00000E+00 0.00000E+00 0.00000E+00 0.00000E+00 0.00000E+00
 -1         3 0.00000E+00 0.00000E+00 0.00000E+00 0.00000E+00 0.00000E+00 0.00000E+00
 -1         4 0.00000E+00 0.00000E+00 0.00000E+00 0.00000E+00 0.00000E+00 0.00000E+00
 -1         5 0.00000E+00 0.00000E+00 0.00000E+00 0.00000E+00 0.00000E+00 0.00000E+00
 -1         6 0.00000E+00 0.00000E+00 0.00000E+00 0.00000E+00 0.00000E+00 0.00000E+00
 -1         7 0.00000E+00 0.00000E+00 0.00000E+00 0.00000E+00 0.00000E+00 0.00000E+00
 -1         8 0.00000E+00 0.00000E+00 0.00000E+00 0.00000E+00 0.00000E+00 0.00000E+00
 -1         9-1.00052E-06-5.18188E-15 3.53879E-06 1.00052E+01-3.97774E-12 9.99577E-04
 -1        10-1.00021E-06 1.52697E-06 2.01128E-06 1.00021E+01 6.43375E-04 9.08877E-04
 -1        11 0.00000E+00 0.00000E+00 0.00000E+00 0.00000E+00 0.00000E+00 0.00000E+00
 -1        12 0.00000E+00 0.00000E+00 0.00000E+00 0.00000E+00 0.00000E+00 0.00000E+00
 -1        13-1.00021E-06-1.52697E-06 2.01128E-06 1.00021E+01-6.43375E-04 9.08877E-04
 -1        14-9.99309E-07-5.44472E-15 4.83075E-07 9.99309E+00-1.52468E-11 6.58176E-04
 -1        15 0.00000E+00 0.00000E+00 0.00000E+00 0.00000E+00 0.00000E+00 0.00000E+00
 -1        16 0.00000E+00 0.00000E+00 0.00000E+00 0.00000E+00 0.00000E+00 0.00000E+00
 -3
    1PSTEP                         4           2           1          
  100CL  102 2.00000E-01          16                     0    2           1
 -4  DISP        4    1
 -5  D1          1    2    1    0
 -5  D2          1    2    2    0
 -5  D3          1    2    3    0
 -5  ALL         1    2    0    0    1ALL
 -1         1 0.00000E+00 0.00000E+00 0.00000E+00
 -1         2 0.00000E+00 0.00000E+00 0.00000E+00
 -1         3 7.42688E-07-7.41079E-07-3.46594E-06
 -1         4 7.43128E-07 7.44716E-07-3.46780E-06
 -1         5 0.00000E+00 0.00000E+00 0.00000E+00
 -1         6 0.00000E+00 0.00000E+00 0.00000E+00
 -1         7-7.42688E-07-7.41079E-07-3.46594E-06
 -1         8-7.43128E-07 7.44716E-07-3.46780E-06
 -1         9-2.10958E-14 8.06517E-06-6.35783E-06
 -1        10 4.04010E-06 4.02362E-06-6.35632E-06
 -1        11 4.04248E-06 4.03181E-06-2.54080E-05
 -1        12 0.00000E+00 8.07645E-06-2.54136E-05
 -1        13-4.04010E-06 4.02362E-06-6.35632E-06
 -1        14-2.10847E-14-1.96242E-08-6.35290E-06
 -1        15 0.00000E+00 0.00000E+00-2.53977E-05
 -1        16-4.04248E-06 4.03181E-06-2.54080E-05
 -3
    1PSTEP                         5           2           1          
  100CL  102 2.00000E-01          16                     0    2           1
 -4  STRESS      6    1
 -5  SXX         1    4    1    1
 -5  SYY         1    4    2    2
 -5  SZZ         1    4    3    3
 -5  SXY         1    4    1    2
 -5  SYZ         1    4    2    3
 -5  SZX         1    4    3    1
 -1         1-4.20131E-01-4.20131E-01-9.80282E-01 8.94523E-08 6.01490E-02 6.00207E-02
 -1         2-4.19906E-01-4.19906E-01-9.79756E-01-8.88525E-08-5.98553E-02 5.99852E-02
 -1         3 1.80007E-01 1.80075E-01-6.19789E-01 3.54243E-05-6.00057E-02 5.99855E-02
 -1         4 1.80030E-01 1.79956E-01-6.20208E-01 3.56061E-05 5.99991E-02 6.00210E-02
 -1         5-4.20131E-01-4.20131E-01-9.80282E-01-8.94523E-08 6.01490E-02-6.00207E-02
 -1         6-4.19906E-01-4.19906E-01-9.79756E-01 8.88525E-08-5.98553E-02-5.99852E-02
 -1         7 1.80007E-01 1.80075E-01-6.19789E-01-3.54278E-05-6.00057E-02-5.99855E-02
 -1         8 1.80030E-01 1.79956E-01-6.20208E-01-3.56026E-05 5.99991E-02-6.00210E-02
 -1         9-4.43220E-03-2.77432E-03-2.00059E+01 3.02086E-11 3.69375E-03-8.76465E-11
 -1        10-1.23259E-03 1.39481E-03-1.99994E+01 4.84762E-04 1.90060E-03 4.19212E-04
 -1        11-3.53993E-05-4.89544E-03-2.00010E+01-3.66378E-03-1.24363E-03-3.94235E-04
 -1        12 2.98780E-03 5.45532E-03-2.00012E+01-4.58623E-11 1.36298E-03-4.33874E-11
 -1        13-1.23259E-03 1.39481E-03-1.99994E+01-4.84762E-04 1.90060E-03-4.19212E-04
 -1        14 3.69281E-03 7.28974E-03-1.99889E+01-4.76336E-11 5.97217E-03-9.21174E-11
 -1        15-1.33281E-03-1.35204E-02-1.99967E+01 5.06141E-11 2.01450E-03-4.78598E-11
 -1        16-3.53997E-05-4.89544E-03-2.00010E+01 3.66378E-03-1.24363E-03 3.94236E-04
 -3
    1PSTEP                         6           2           1          
  100CL  102 2.00000E-01          16                     0    2           1
 -4  CONTACT     6    1
 -5  COPEN       1    4    1    1
 -5  CSLIP1      1    4    2    2
 -5  CSLIP2      1    4    3    3
 -5  CPRESS      1    4    1    2
 -5  CSHEAR1     1    4    2    3
 -5  CSHEAR2     1    4    3    1
 -1         1 0.00000E+00 0.00000E+00 0.00000E+00 0.00000E+00 0.00000E+00 0.00000E+00
 -1         2 0.00000E+00 0.00000E+00 0.00000E+00 0.00000E+00 0.00000E+00 0.00000E+00
 -1         3 0.00000E+00 0.00000E+00 0.00000E+00 0.00000E+00 0.00000E+00 0.00000E+00
 -1         4 0.00000E+00 0.00000E+00 0.00000E+00 0.00000E+00 0.00000E+00 0.00000E+00
 -1         5 0.00000E+00 0.00000E+00 0.00000E+00 0.00000E+00 0.00000E+00 0.00000E+00
 -1         6 0.00000E+00 0.00000E+00 0.00000E+00 0.00000E+00 0.00000E+00 0.00000E+00
 -1         7 0.00000E+00 0.00000E+00 0.00000E+00 0.00000E+00 0.00000E+00 0.00000E+00
 -1         8 0.00000E+00 0.00000E+00 0.00000E+00 0.00000E+00 0.00000E+00 0.00000E+00
 -1         9-2.00107E-06-7.02537E-14 7.07706E-06 2.00107E+01-3.72449E-11 1.99916E-03
 -1        10-2.00037E-06 3.05412E-06 4.02180E-06 2.00037E+01 1.28703E-03 1.81774E-03
 -1        11 0.00000E+00 0.00000E+00 0.00000E+00 0.00000E+00 0.00000E+00 0.00000E+00
 -1        12 0.00000E+00 0.00000E+00 0.00000E+00 0.00000E+00 0.00000E+00 0.00000E+00
 -1        13-2.00037E-06-3.05412E-06 4.02180E-06 2.00037E+01-1.28703E-03 1.81774E-03
 -1        14-1.99864E-06-7.02459E-14 9.65153E-07 1.99864E+01-8.51223E-11 1.31563E-03
 -1        15 0.00000E+00 0.00000E+00 0.00000E+00 0.00000E+00 0.00000E+00 0.00000E+00
 -1        16 0.00000E+00 0.00000E+00 0.00000E+00 0.00000E+00 0.00000E+00 0.00000E+00
 -3
    1PSTEP                         7           3           1          
  100CL  103 3.50000E-01          16                     0    3           1
 -4  DISP        4    1
 -5  D1          1    2    1    0
 -5  D2          1    2    2    0
 -5  D3          1    2    3    0
 -5  ALL         1    2    0    0    1ALL
 -1         1 0.00000E+00 0.00000E+00 0.00000E+00
 -1         2 0.00000E+00 0.00000E+00 0.00000E+00
 -1         3 1.29975E-06-1.29690E-06-6.06563E-06
 -1         4 1.30054E-06 1.30336E-06-6.06898E-06
 -1         5 0.00000E+00 0.00000E+00 0.00000E+00
 -1         6 0.00000E+00 0.00000E+00 0.00000E+00
 -1         7-1.29975E-06-1.29690E-06-6.06563E-06
 -1         8-1.30054E-06 1.30336E-06-6.06898E-06
 -1         9-4.24578E-14 1.41146E-05-1.19188E-05
 -1        10 7.07088E-06 7.04116E-06-1.19157E-05
 -1        11 7.07510E-06 7.05637E-06-4.52611E-05
 -1        12 0.00000E+00 1.41352E-05-4.52715E-05
 -1        13-7.07088E-06 7.04116E-06-1.19157E-05
 -1        14-4.24271E-14-3.52742E-08-1.19089E-05
 -1        15 0.00000E+00 0.00000E+00-4.52423E-05
 -1        16-7.07510E-06 7.05637E-06-4.52611E-05
 -3
    1PSTEP                         8           3           1          
  100CL  103 3.50000E-01          16                     0    3           1
 -4  STRESS      6    1
 -5  SXX         1    4    1    1
 -5  SYY         1    4    2    2
 -5  SZZ         1    4    3    3
 -5  SXY         1    4    1    2
 -5  SYZ         1    4    2    3
 -5  SZX         1    4    3    1
 -1         1-7.35271E-01-7.35271E-01-1.71558E+00 2.73820E-07 1.05269E-01 1.05041E-01
 -1         2-7.34865E-01-7.34865E-01-1.71463E+00-2.72287E-07-1.04746E-01 1.04977E-01
 -1         3 3.15027E-01 3.15149E-01-1.08466E+00 6.38139E-05-1.05018E-01 1.04978E-01
 -1         4 3.15069E-01 3.14935E-01-1.08542E+00 6.43677E-05 1.04999E-01 1.05042E-01
 -1         5-7.35271E-01-7.35271E-01-1.71558E+00-2.73820E-07 1.05269E-01-1.05041E-01
 -1         6-7.34865E-01-7.34865E-01-1.71463E+00 2.72287E-07-1.04746E-01-1.04977E-01
 -1         7 3.15027E-01 3.15149E-01-1.08466E+00-6.38216E-05-1.05018E-01-1.04978E-01
 -1         8 3.15069E-01 3.14935E-01-1.08542E+00-6.43600E-05 1.04999E-01-1.05042E-01
 -1         9-7.82500E-03-4.87350E-03-3.50105E+01 6.00549E-11 6.53764E-03-1.82546E-10
 -1        10-2.14250E-03 2.50646E-03-3.49989E+01 8.48725E-04 3.32678E-03 6.61907E-04
 -1        11 1.73404E-06-8.55658E-03-3.50016E+01-6.41553E-03-2.17900E-03-6.87527E-04
 -1        12 5.21561E-03 9.48835E-03-3.50023E+01-9.38858E-11 2.38129E-03-9.10248E-11
 -1        13-2.14250E-03 2.50646E-03-3.49989E+01-8.48725E-04 3.32678E-03-6.61907E-04
 -1        14 6.40320E-03 1.27496E-02-3.49807E+01-9.95624E-11 1.03824E-02-1.94920E-10
 -1        15-2.34894E-03-2.37383E-02-3.49943E+01 1.05296E-10 3.52721E-03-1.03404E-10
 -1        16 1.73315E-06-8.55658E-03-3.50016E+01 6.41553E-03-2.17900E-03 6.87527E-04
 -3
    1PSTEP                         9           3           1          
  100CL  103 3.50000E-01          16                     0    3           1
 -4  CONTACT     6    1
 -5  COPEN       1    4    1    1
 -5  CSLIP1      1    4    2    2
 -5  CSLIP2      1    4    3    3
 -5  CPRESS      1    4    1    2
 -5  CSHEAR1     1    4    2    3
 -5  CSHEAR2     1    4    3    1
 -1         1 0.00000E+00 0.00000E+00 0.00000E+00 0.00000E+00 0.00000E+00 0.00000E+00
 -1         2 0.00000E+00 0.00000E+00 0.00000E+00 0.00000E+00 0.00000E+00 0.00000E+00
 -1         3 0.00000E+00 0.00000E+00 0.00000E+00 0.00000E+00 0.00000E+00 0.00000E+00
 -1         4 0.00000E+00 0.00000E+00 0.00000E+00 0.00000E+00 0.00000E+00 0.00000E+00
 -1         5 0.00000E+00 0.00000E+00 0.00000E+00 0.00000E+00 0.00000E+00 0.00000E+00
 -1         6 0.00000E+00 0.00000E+00 0.00000E+00 0.00000E+00 0.00000E+00 0.00000E+00
 -1         7 0.00000E+00 0.00000E+00 0.00000E+00 0.00000E+00 0.00000E+00 0.00000E+00
 -1         8 0.00000E+00 0.00000E+00 0.00000E+00 0.00000E+00 0.00000E+00 0.00000E+00
 -1         9-3.50195E-06-1.47714E-13 1.23852E-05 3.50195E+01-6.96612E-11 3.49859E-03
 -1        10-3.50067E-06 5.34526E-06 7.03792E-06 3.50067E+01 2.25252E-03 3.18114E-03
 -1        11 0.00000E+00 0.00000E+00 0.00000E+00 0.00000E+00 0.00000E+00 0.00000E+00
 -1        12 0.00000E+00 0.00000E+00 0.00000E+00 0.00000E+00 0.00000E+00 0.00000E+00
 -1        13-3.50067E-06-5.34526E-06 7.03792E-06 3.50067E+01-2.25252E-03 3.18114E-03
 -1        14-3.49769E-06-1.47691E-13 1.68820E-06 3.49769E+01-1.79404E-10 2.30174E-03
 -1        15 0.00000E+00 0.00000E+00 0.00000E+00 0.00000E+00 0.00000E+00 0.00000E+00
 -1        16 0.00000E+00 0.00000E+00 0.00000E+00 0.00000E+00 0.00000E+00 0.00000E+00
 -3
    1PSTEP                        10           4           1          
  100CL  104 5.75000E-01          16                     0    4           1
 -4  DISP        4    1
 -5  D1          1    2    1    0
 -5  D2          1    2    2    0
 -5  D3          1    2    3    0
 -5  ALL         1    2    0    0    1ALL
 -1         1 0.00000E+00 0.00000E+00 0.00000E+00
 -1         2 0.00000E+00 0.00000E+00 0.00000E+00
 -1         3 2.13542E-06-2.13064E-06-9.96554E-06
 -1         4 2.13678E-06 2.14151E-06-9.97130E-06
 -1         5 0.00000E+00 0.00000E+00 0.00000E+00
 -1         6 0.00000E+00 0.00000E+00 0.00000E+00
 -1         7-2.13542E-06-2.13064E-06-9.96554E-06
 -1         8-2.13678E-06 2.14151E-06-9.97130E-06
 -1         9-4.74012E-14 2.31919E-05-1.95488E-05
 -1        10 1.16183E-05 1.15694E-05-1.95436E-05
 -1        11 1.16252E-05 1.15944E-05-7.43377E-05
 -1        12 0.00000E+00 2.32257E-05-7.43548E-05
 -1        13-1.16183E-05 1.15694E-05-1.95436E-05
 -1        14-4.72798E-14-5.79909E-08-1.95325E-05
 -1        15 0.00000E+00 0.00000E+00-7.43069E-05
 -1        16-1.16252E-05 1.15944E-05-7.43377E-05
 -3
    1PSTEP                        11           4           1          
  100CL  104 5.75000E-01          16                     0    4           1
 -4  STRESS      6    1
 -5  SXX         1    4    1    1
 -5  SYY         1    4    2    2
 -5  SZZ         1    4    3    3
 -5  SXY         1    4    1    2
 -5  SYZ         1    4    2    3
 -5  SZX         1    4    3    1
 -1         1-1.20805E+00-1.20805E+00-2.81867E+00 7.38938E-07 1.72961E-01 1.72579E-01
 -1         2-1.20735E+00-1.20735E+00-2.81704E+00-7.35190E-07-1.72083E-01 1.72469E-01
 -1         3 5.17581E-01 5.17791E-01-1.78203E+00 1.09336E-04-1.72550E-01 1.72471E-01
 -1         4 5.17653E-01 5.17424E-01-1.78332E+00 1.10819E-04 1.72498E-01 1.72581E-01
 -1         5-1.20805E+00-1.20805E+00-2.81867E+00-7.38937E-07 1.72961E-01-1.72579E-01
 -1         6-1.20735E+00-1.20735E+00-2.81704E+00 7.35190E-07-1.72083E-01-1.72469E-01
 -1         7 5.17581E-01 5.17791E-01-1.78203E+00-1.09345E-04-1.72550E-01-1.72471E-01
 -1         8 5.17653E-01 5.17424E-01-1.78332E+00-1.10810E-04 1.72498E-01-1.72581E-01
 -1         9-1.28430E-02-8.00816E-03-5.75172E+01 5.45751E-11 1.07185E-02-1.63915E-10
 -1        10-3.52748E-03 4.09816E-03-5.74983E+01 1.39542E-03 5.46750E-03 1.11426E-03
 -1        11-2.19731E-05-1.40759E-02-5.75027E+01-1.05498E-02-3.58625E-03-1.13259E-03
 -1        12 8.58029E-03 1.56259E-02-5.75037E+01-8.44199E-11 3.91159E-03-7.60204E-11
 -1        13-3.52748E-03 4.09816E-03-5.74983E+01-1.39542E-03 5.46750E-03-1.11426E-03
 -1        14 1.05560E-02 2.09725E-02-5.74682E+01-1.03035E-10 1.70915E-02-2.12890E-10
 -1        15-3.85626E-03-3.90097E-02-5.74905E+01 1.07977E-10 5.79086E-03-1.25000E-10
 -1        16-2.19739E-05-1.40759E-02-5.75027E+01 1.05498E-02-3.58625E-03 1.13259E-03
 -3
    1PSTEP                        12           4           1          
  100CL  104 5.75000E-01          16                     0    4           1
 -4  CONTACT     6    1
 -5  COPEN       1    4    1    1
 -5  CSLIP1      1    4    2    2
 -5  CSLIP2      1    4    3    3
 -5  CPRESS      1    4    1    2
 -5  CSHEAR1     1    4    2    3
 -5  CSHEAR2     1    4    3    1
 -1         1 0.00000E+00 0.00000E+00 0.00000E+00 0.00000E+00 0.00000E+00 0.00000E+00
 -1         2 0.00000E+00 0.00000E+00 0.00000E+00 0.00000E+00 0.00000E+00 0.00000E+00
 -1         3 0.00000E+00 0.00000E+00 0.00000E+00 0.00000E+00 0.00000E+00 0.00000E+00
 -1         4 0.00000E+00 0.00000E+00 0.00000E+00 0.00000E+00 0.00000E+00 0.00000E+00
 -1         5 0.00000E+00 0.00000E+00 0.00000E+00 0.00000E+00 0.00000E+00 0.00000E+00
 -1         6 0.00000E+00 0.00000E+00 0.00000E+00 0.00000E+00 0.00000E+00 0.00000E+00
 -1         7 0.00000E+00 0.00000E+00 0.00000E+00 0.00000E+00 0.00000E+00 0.00000E+00
 -1         8 0.00000E+00 0.00000E+00 0.00000E+00 0.00000E+00 0.00000E+00 0.00000E+00
 -1         9-5.75332E-06-1.67970E-13 2.03502E-05 5.75332E+01-5.29038E-11 5.74781E-03
 -1        10-5.75124E-06 8.78290E-06 1.15639E-05 5.75124E+01 3.70057E-03 5.22629E-03
 -1        11 0.00000E+00 0.00000E+00 0.00000E+00 0.00000E+00 0.00000E+00 0.00000E+00
 -1        12 0.00000E+00 0.00000E+00 0.00000E+00 0.00000E+00 0.00000E+00 0.00000E+00
 -1        13-5.75124E-06-8.78290E-06 1.15639E-05 5.75124E+01-3.70057E-03 5.22629E-03
 -1        14-5.74633E-06-1.67856E-13 2.77370E-06 5.74633E+01-2.07973E-10 3.78160E-03
 -1        15 0.00000E+00 0.00000E+00 0.00000E+00 0.00000E+00 0.00000E+00 0.00000E+00
 -1        16 0.00000E+00 0.00000E+00 0.00000E+00 0.00000E+00 0.00000E+00 0.00000E+00
 -3
    1PSTEP                        13           5           1          
  100CL  105 9.12500E-01          16                     0    5           1
 -4  DISP        4    1
 -5  D1          1    2    1    0
 -5  D2          1    2    2    0
 -5  D3          1    2    3    0
 -5  ALL         1    2    0    0    1ALL
 -1         1 0.00000E+00 0.00000E+00 0.00000E+00
 -1         2 0.00000E+00 0.00000E+00 0.00000E+00
 -1         3 3.38909E-06-3.38127E-06-1.58162E-05
 -1         4 3.39140E-06 3.39913E-06-1.58260E-05
 -1         5 0.00000E+00 0.00000E+00 0.00000E+00
 -1         6 0.00000E+00 0.00000E+00 0.00000E+00
 -1         7-3.38909E-06-3.38127E-06-1.58162E-05
 -1         8-3.39140E-06 3.39913E-06-1.58260E-05
 -1         9-1.04355E-13 3.68173E-05-2.69260E-05
 -1        10 1.84421E-05 1.83687E-05-2.69199E-05
 -1        11 1.84528E-05 1.84042E-05-1.13906E-04
 -1        12 0.00000E+00 3.68671E-05-1.13930E-04
 -1        13-1.84421E-05 1.83687E-05-2.69199E-05
 -1        14-1.04243E-13-8.75727E-08-2.69063E-05
 -1        15 0.00000E+00 0.00000E+00-1.13860E-04
 -1        16-1.84528E-05 1.84042E-05-1.13906E-04
 -3
    1PSTEP                        14           5           1          
  100CL  105 9.12500E-01          16                     0    5           1
 -4  STRESS      6    1
 -5  SXX         1    4    1    1
 -5  SYY         1    4    2    2
 -5  SZZ         1    4    3    3
 -5  SXY         1    4    1    2
 -5  SYZ         1    4    2    3
 -5  SZX         1    4    3    1
 -1         1-1.91736E+00-1.91736E+00-4.47362E+00 1.86111E-06 2.74528E-01 2.73904E-01
 -1         2-1.91618E+00-1.91618E+00-4.47087E+00-1.85212E-06-2.73086E-01 2.73718E-01
 -1         3 8.21465E-01 8.21823E-01-2.82819E+00 1.84224E-04-2.73878E-01 2.73723E-01
 -1         4 8.21588E-01 8.21201E-01-2.83038E+00 1.87958E-04 2.73747E-01 2.73909E-01
 -1         5-1.91736E+00-1.91736E+00-4.47362E+00-1.86111E-06 2.74528E-01-2.73904E-01
 -1         6-1.91618E+00-1.91618E+00-4.47087E+00 1.85212E-06-2.73086E-01-2.73718E-01
 -1         7 8.21465E-01 8.21823E-01-2.82819E+00-1.84244E-04-2.73878E-01-2.73723E-01
 -1         8 8.21588E-01 8.21201E-01-2.83038E+00-1.87937E-04 2.73747E-01-2.73909E-01
 -1         9-2.00219E-02-1.26334E-02-9.12768E+01 1.40933E-10 1.65892E-02-4.50213E-10
 -1        10-5.69464E-03 6.12935E-03-9.12478E+01 2.21776E-03 8.68120E-03 2.20034E-03
 -1        11-4.23109E-04-2.24624E-02-9.12548E+01-1.67660E-02-5.70562E-03-1.82087E-03
 -1        12 1.37253E-02 2.52180E-02-9.12553E+01-2.17623E-10 6.22363E-03-2.36455E-10
 -1        13-5.69464E-03 6.12935E-03-9.12478E+01-2.21776E-03 8.68120E-03-2.20034E-03
 -1        14 1.71677E-02 3.34272E-02-9.11990E+01-2.41968E-10 2.75747E-02-4.95313E-10
 -1        15-6.03644E-03-6.16077E-02-9.12344E+01 2.50623E-10 9.16665E-03-2.81560E-10
 -1        16-4.23111E-04-2.24624E-02-9.12548E+01 1.67660E-02-5.70562E-03 1.82087E-03
 -3
    1PSTEP                        15           5           1          
  100CL  105 9.12500E-01          16                     0    5           1
 -4  CONTACT     6    1
 -5  COPEN       1    4    1    1
 -5  CSLIP1      1    4    2    2
 -5  CSLIP2      1    4    3    3
 -5  CPRESS      1    4    1    2
 -5  CSHEAR1     1    4    2    3
 -5  CSHEAR2     1    4    3    1
 -1         1 0.00000E+00 0.00000E+00 0.00000E+00 0.00000E+00 0.00000E+00 0.00000E+00
 -1         2 0.00000E+00 0.00000E+00 0.00000E+00 0.00000E+00 0.00000E+00 0.00000E+00
 -1         3 0.00000E+00 0.00000E+00 0.00000E+00 0.00000E+00 0.00000E+00 0.00000E+00
 -1         4 0.00000E+00 0.00000E+00 0.00000E+00 0.00000E+00 0.00000E+00 0.00000E+00
 -1         5 0.00000E+00 0.00000E+00 0.00000E+00 0.00000E+00 0.00000E+00 0.00000E+00
 -1         6 0.00000E+00 0.00000E+00 0.00000E+00 0.00000E+00 0.00000E+00 0.00000E+00
 -1         7 0.00000E+00 0.00000E+00 0.00000E+00 0.00000E+00 0.00000E+00 0.00000E+00
 -1         8 0.00000E+00 0.00000E+00 0.00000E+00 0.00000E+00 0.00000E+00 0.00000E+00
 -1         9-9.13046E-06-4.10347E-13 3.23064E-05 9.13046E+01-1.91539E-10 9.12178E-03
 -1        10-9.12744E-06 1.39415E-05 1.83597E-05 9.12744E+01 5.87155E-03 8.29407E-03
 -1        11 0.00000E+00 0.00000E+00 0.00000E+00 0.00000E+00 0.00000E+00 0.00000E+00
 -1        12 0.00000E+00 0.00000E+00 0.00000E+00 0.00000E+00 0.00000E+00 0.00000E+00
 -1        13-9.12744E-06-1.39415E-05 1.83597E-05 9.12744E+01-5.87155E-03 8.29407E-03
 -1        14-9.11935E-06-4.10252E-13 4.40682E-06 9.11935E+01-4.81308E-10 6.00497E-03
 -1        15 0.00000E+00 0.00000E+00 0.00000E+00 0.00000E+00 0.00000E+00 0.00000E+00
 -1        16 0.00000E+00 0.00000E+00 0.00000E+00 0.00000E+00 0.00000E+00 0.00000E+00
 -3
    1PSTEP                        16           6           1          
  100CL  106 1.000000000          16                     0    6           1
 -4  DISP        4    1
 -5  D1          1    2    1    0
 -5  D2          1    2    2    0
 -5  D3          1    2    3    0
 -5  ALL         1    2    0    0    1ALL
 -1         1 0.00000E+00 0.00000E+00 0.00000E+00
 -1         2 0.00000E+00 0.00000E+00 0.00000E+00
 -1         3 3.71406E-06-3.70512E-06-1.73329E-05
 -1         4 3.71682E-06 3.72566E-06-1.73445E-05
 -1         5 0.00000E+00 0.00000E+00 0.00000E+00
 -1         6 0.00000E+00 0.00000E+00 0.00000E+00
 -1         7-3.71406E-06-3.70512E-06-1.73329E-05
 -1         8-3.71681E-06 3.72566E-06-1.73445E-05
 -1         9-1.23062E-13 4.03523E-05-2.73464E-05
 -1        10 2.02118E-05 2.01335E-05-2.73407E-05
 -1        11 2.02234E-05 2.01703E-05-1.22676E-04
 -1        12 0.00000E+00 4.04049E-05-1.22701E-04
 -1        13-2.02118E-05 2.01335E-05-2.73407E-05
 -1        14-1.22984E-13-9.37162E-08-2.73278E-05
 -1        15 0.00000E+00 0.00000E+00-1.22627E-04
 -1        16-2.02234E-05 2.01703E-05-1.22676E-04
 -3
    1PSTEP                        17           6           1          
  100CL  106 1.000000000          16                     0    6           1
 -4  STRESS      6    1
 -5  SXX         1    4    1    1
 -5  SYY         1    4    2    2
 -5  SZZ         1    4    3    3
 -5  SXY         1    4    1    2
 -5  SYZ         1    4    2    3
 -5  SZX         1    4    3    1
 -1         1-2.10134E+00-2.10134E+00-4.90286E+00 2.23544E-06 3.00898E-01 3.00184E-01
 -1         2-2.09993E+00-2.09993E+00-4.89957E+00-2.22429E-06-2.99239E-01 2.99962E-01
 -1         3 9.00256E-01 9.00684E-01-3.09934E+00 2.20354E-04-3.00187E-01 2.99968E-01
 -1         4 9.00402E-01 8.99941E-01-3.10197E+00 2.24838E-04 2.99964E-01 3.00191E-01
 -1         5-2.10134E+00-2.10134E+00-4.90286E+00-2.23544E-06 3.00898E-01-3.00184E-01
 -1         6-2.09993E+00-2.09993E+00-4.89957E+00 2.22429E-06-2.99239E-01-2.99962E-01
 -1         7 9.00256E-01 9.00684E-01-3.09934E+00-2.20378E-04-3.00187E-01-2.99968E-01
 -1         8 9.00402E-01 8.99941E-01-3.10197E+00-2.24814E-04 2.99964E-01-3.00191E-01
 -1         9-2.17472E-02-1.37990E-02-1.00029E+02 1.93722E-10 1.79589E-02-6.18937E-10
 -1        10-6.28909E-03 6.52009E-03-9.99979E+01 2.43052E-03 9.51523E-03 2.63362E-03
 -1        11-6.62571E-04-2.46679E-02-1.00006E+02-1.83767E-02-6.25424E-03-2.00595E-03
 -1        12 1.50901E-02 2.78381E-02-1.00006E+02-2.98647E-10 6.82902E-03-3.29790E-10
 -1        13-6.28909E-03 6.52009E-03-9.99979E+01-2.43052E-03 9.51523E-03-2.63362E-03
 -1        14 1.90171E-02 3.66874E-02-9.99438E+01-3.12001E-10 3.04426E-02-6.50316E-10
 -1        15-6.56711E-03-6.73257E-02-9.99827E+01 3.31262E-10 1.00336E-02-3.61140E-10
 -1        16-6.62574E-04-2.46679E-02-1.00006E+02 1.83767E-02-6.25424E-03 2.00595E-03
 -3
    1PSTEP                        18           6           1          
  100CL  106 1.000000000          16                     0    6           1
 -4  CONTACT     6    1
 -5  COPEN       1    4    1    1
 -5  CSLIP1      1    4    2    2
 -5  CSLIP2      1    4    3    3
 -5  CPRESS      1    4    1    2
 -5  CSHEAR1     1    4    2    3
 -5  CSHEAR2     1    4    3    1
 -1         1 0.00000E+00 0.00000E+00 0.00000E+00 0.00000E+00 0.00000E+00 0.00000E+00
 -1         2 0.00000E+00 0.00000E+00 0.00000E+00 0.00000E+00 0.00000E+00 0.00000E+00
 -1         3 0.00000E+00 0.00000E+00 0.00000E+00 0.00000E+00 0.00000E+00 0.00000E+00
 -1         4 0.00000E+00 0.00000E+00 0.00000E+00 0.00000E+00 0.00000E+00 0.00000E+00
 -1         5 0.00000E+00 0.00000E+00 0.00000E+00 0.00000E+00 0.00000E+00 0.00000E+00
 -1         6 0.00000E+00 0.00000E+00 0.00000E+00 0.00000E+00 0.00000E+00 0.00000E+00
 -1         7 0.00000E+00 0.00000E+00 0.00000E+00 0.00000E+00 0.00000E+00 0.00000E+00
 -1         8 0.00000E+00 0.00000E+00 0.00000E+00 0.00000E+00 0.00000E+00 0.00000E+00
 -1         9-1.00052E-05-4.75540E-13 3.54080E-05 1.00052E+02-2.30215E-10 9.99574E-03
 -1        10-1.00021E-05 1.52793E-05 2.01231E-05 1.00021E+02 6.43351E-03 9.08869E-03
 -1        11 0.00000E+00 0.00000E+00 0.00000E+00 0.00000E+00 0.00000E+00 0.00000E+00
 -1        12 0.00000E+00 0.00000E+00 0.00000E+00 0.00000E+00 0.00000E+00 0.00000E+00
 -1        13-1.00021E-05-1.52793E-05 2.01231E-05 1.00021E+02-6.43351E-03 9.08869E-03
 -1        14-9.99303E-06-4.75482E-13 4.83140E-06 9.99303E+01-5.56471E-10 6.58199E-03
 -1        15 0.00000E+00 0.00000E+00 0.00000E+00 0.00000E+00 0.00000E+00 0.00000E+00
 -1        16 0.00000E+00 0.00000E+00 0.00000E+00 0.00000E+00 0.00000E+00 0.00000E+00
 -3
    1PSTEP                        19         100           2          
  100CL  107 2.000000000          16                     0    7           1
 -4  DISP        4    1
 -5  D1          1    2    1    0
 -5  D2          1    2    2    0
 -5  D3          1    2    3    0
 -5  ALL         1    2    0    0    1ALL
 -1         1 0.00000E+00 0.00000E+00 0.00000E+00