    1C
    1UUSER                                                              
    1UDATE              04.march.2015                                   
    1UTIME              20:01:18                                        
    1UHOST                                                              
    1UPGM               CalculiX                                        
    1UDIR                                                               
    1UDBN                                                               
    1UMAT    1COMPRESSION_ONLY                                          
    1UMAT    2STEEL                                                     
    2C                          1408                                     1
 -1        57 1.00000E+01 0.00000E+00 5.00000E-01
 -1        58 1.00000E+01 0.00000E+00 4.55000E-01
 -1        59 1.00000E+01 0.00000E+00 4.10000E-01
 -1        60 1.00000E+01 0.00000E+00 4.10000E-01
 -1        61 1.00000E+01 0.00000E+00 4.05000E-01
 -1        62 1.00000E+01 0.00000E+00 4.00000E-01
 -1        63 1.00000E+01 0.00000E+00 4.00000E-01
 -1        64 1.00000E+01 0.00000E+00 3.50000E-01
 -1        65 1.00000E+01 0.00000E+00 3.00000E-01
 -1        66 1.00000E+01 0.00000E+00 3.00000E-01
 -1        67 1.00000E+01 0.00000E+00 2.50000E-01
 -1        68 1.00000E+01 0.00000E+00 2.00000E-01
 -1        69 1.00000E+01 0.00000E+00 2.00000E-01
 -1        70 1.00000E+01 0.00000E+00 1.50000E-01
 -1        71 1.00000E+01 0.00000E+00 1.00000E-01
 -1        72 1.00000E+01 0.00000E+00 1.00000E-01
 -1        73 1.00000E+01 0.00000E+00 5.00000E-02
 -1        74 1.00000E+01 0.00000E+00-5.55112E-17
 -1        75 1.00000E+01 0.00000E+00-5.55112E-17
 -1        76 1.00000E+01 0.00000E+00-5.00000E-02
 -1        77 1.00000E+01 0.00000E+00-1.00000E-01
 -1        78 1.00000E+01 0.00000E+00-1.00000E-01
 -1        79 1.00000E+01 0.00000E+00-1.50000E-01
 -1        80 1.00000E+01 0.00000E+00-2.00000E-01
 -1        81 1.00000E+01 0.00000E+00-2.00000E-01
 -1        82 1.00000E+01 0.00000E+00-2.50000E-01
 -1        83 1.00000E+01 0.00000E+00-3.00000E-01
 -1        84 1.00000E+01 0.00000E+00-3.00000E-01
 -1        85 1.00000E+01 0.00000E+00-3.50000E-01
 -1        86 1.00000E+01 0.00000E+00-4.00000E-01
 -1        87 1.00000E+01 0.00000E+00-4.00000E-01
 -1        88 1.00000E+01 0.00000E+00-4.50000E-01
 -1        89 1.00000E+01 0.00000E+00-5.00000E-01
 -1        93 9.00000E+00 0.00000E+00 5.00000E-01
 -1        94 9.00000E+00 0.00000E+00 4.55000E-01
 -1        95 9.00000E+00 0.00000E+00 4.10000E-01
 -1        96 9.00000E+00 0.00000E+00 4.10000E-01
 -1        97 9.00000E+00 0.00000E+00 4.05000E-01
 -1        98 9.00000E+00 0.00000E+00 4.00000E-01
 -1        99 9.00000E+00 0.00000E+00 4.00000E-01
 -1       100 9.00000E+00 0.00000E+00 3.50000E-01
 -1       101 9.00000E+00 0.00000E+00 3.00000E-01
 -1       102 9.00000E+00 0.00000E+00 3.00000E-01
 -1       103 9.00000E+00 0.00000E+00 2.50000E-01
 -1       104 9.00000E+00 0.00000E+00 2.00000E-01
 -1       105 9.00000E+00 0.00000E+00 2.00000E-01
 -1       106 9.00000E+00 0.00000E+00 1.50000E-01
 -1       107 9.00000E+00 0.00000E+00 1.00000E-01
 -1       108 9.00000E+00 0.00000E+00 1.00000E-01
 -1       109 9.00000E+00 0.00000E+00 5.00000E-02
 -1       110 9.00000E+00 0.00000E+00-5.55112E-17
 -1       111 9.00000E+00 0.00000E+00-5.55112E-17
 -1       112 9.00000E+00 0.00000E+00-5.00000E-02
 -1       113 9.00000E+00 0.00000E+00-1.00000E-01
 -1       114 9.00000E+00 0.00000E+00-1.00000E-01
 -1       115 9.00000E+00 0.00000E+00-1.50000E-01
 -1       116 9.00000E+00 0.00000E+00-2.00000E-01
 -1       117 9.00000E+00 0.00000E+00-2.00000E-01
 -1       118 9.00000E+00 0.00000E+00-2.50000E-01
 -1       119 9.00000E+00 0.00000E+00-3.00000E-01
 -1       120 9.00000E+00 0.00000E+00-3.00000E-01
 -1       121 9.00000E+00 0.00000E+00-3.50000E-01
 -1       122 9.00000E+00 0.00000E+00-4.00000E-01
 -1       123 9.00000E+00 0.00000E+00-4.00000E-01
 -1       124 9.00000E+00 0.00000E+00-4.50000E-01
 -1       125 9.00000E+00 0.00000E+00-5.00000E-01
 -1       129 9.00000E+00 1.00000E+00 5.00000E-01
 -1       130 9.00000E+00 1.00000E+00 4.55000E-01
 -1       131 9.00000E+00 1.00000E+00 4.10000E-01
 -1       132 9.00000E+00 1.00000E+00 4.10000E-01
 -1       133 9.00000E+00 1.00000E+00 4.05000E-01
 -1       134 9.00000E+00 1.00000E+00 4.00000E-01
 -1       135 9.00000E+00 1.00000E+00 4.00000E-01
 -1       136 9.00000E+00 1.00000E+00 3.50000E-01
 -1       137 9.00000E+00 1.00000E+00 3.00000E-01
 -1       138 9.00000E+00 1.00000E+00 3.00000E-01
 -1       139 9.00000E+00 1.00000E+00 2.50000E-01
 -1       140 9.00000E+00 1.00000E+00 2.00000E-01
 -1       141 9.00000E+00 1.00000E+00 2.00000E-01
 -1       142 9.00000E+00 1.00000E+00 1.50000E-01
 -1       143 9.00000E+00 1.00000E+00 1.00000E-01
 -1       144 9.00000E+00 1.00000E+00 1.00000E-01
 -1       145 9.00000E+00 1.00000E+00 5.00000E-02
 -1       146 9.00000E+00 1.00000E+00-5.55112E-17
 -1       147 9.00000E+00 1.00000E+00-5.55112E-17
 -1       148 9.00000E+00 1.00000E+00-5.00000E-02
 -1       149 9.00000E+00 1.00000E+00-1.00000E-01
 -1       150 9.00000E+00 1.00000E+00-1.00000E-01
 -1       151 9.00000E+00 1.00000E+00-1.50000E-01
 -1       152 9.00000E+00 1.00000E+00-2.00000E-01
 -1       153 9.00000E+00 1.00000E+00-2.00000E-01
 -1       154 9.00000E+00 1.00000E+00-2.50000E-01
 -1       155 9.00000E+00 1.00000E+00-3.00000E-01
 -1       156 9.00000E+00 1.00000E+00-3.00000E-01
 -1       157 9.00000E+00 1.00000E+00-3.50000E-01
 -1       158 9.00000E+00 1.00000E+00-4.00000E-01
 -1       159 9.00000E+00 1.00000E+00-4.00000E-01
 -1       160 9.00000E+00 1.00000E+00-4.50000E-01
 -1       161 9.00000E+00 1.00000E+00-5.00000E-01
 -1       165 1.00000E+01 1.00000E+00 5.00000E-01
 -1       166 1.00000E+01 1.00000E+00 4.55000E-01
 -1       167 1.00000E+01 1.00000E+00 4.10000E-01
 -1       168 1.00000E+01 1.00000E+00 4.10000E-01
 -1       169 1.00000E+01 1.00000E+00 4.05000E-01
 -1       170 1.00000E+01 1.00000E+00 4.00000E-01
 -1       171 1.00000E+01 1.00000E+00 4.00000E-01
 -1       172 1.00000E+01 1.00000E+00 3.50000E-01
 -1       173 1.00000E+01 1.00000E+00 3.00000E-01
 -1       174 1.00000E+01 1.00000E+00 3.00000E-01
 -1       175 1.00000E+01 1.00000E+00 2.50000E-01
 -1       176 1.00000E+01 1.00000E+00 2.00000E-01
 -1       177 1.00000E+01 1.00000E+00 2.00000E-01
 -1       178 1.00000E+01 1.00000E+00 1.50000E-01
 -1       179 1.00000E+01 1.00000E+00 1.00000E-01
 -1       180 1.00000E+01 1.00000E+00 1.00000E-01
 -1       181 1.00000E+01 1.00000E+00 5.00000E-02
 -1       182 1.00000E+01 1.00000E+00-5.55112E-17
 -1       183 1.00000E+01 1.00000E+00-5.55112E-17
 -1       184 1.00000E+01 1.00000E+00-5.00000E-02
 -1       185 1.00000E+01 1.00000E+00-1.00000E-01
 -1       186 1.00000E+01 1.00000E+00-1.00000E-01
 -1       187 1.00000E+01 1.00000E+00-1.50000E-01
 -1       188 1.00000E+01 1.00000E+00-2.00000E-01
 -1       189 1.00000E+01 1.00000E+00-2.00000E-01
 -1       190 1.00000E+01 1.00000E+00-2.50000E-01
 -1       191 1.00000E+01 1.00000E+00-3.00000E-01
 -1       192 1.00000E+01 1.00000E+00-3.00000E-01
 -1       193 1.00000E+01 1.00000E+00-3.50000E-01
 -1       194 1.00000E+01 1.00000E+00-4.00000E-01
 -1       195 1.00000E+01 1.00000E+00-4.00000E-01
 -1       196 1.00000E+01 1.00000E+00-4.50000E-01
 -1       197 1.00000E+01 1.00000E+00-5.00000E-01
 -1       201 9.50000E+00 0.00000E+00 5.00000E-01
 -1       203 9.50000E+00 0.00000E+00 4.10000E-01
 -1       204 9.50000E+00 0.00000E+00 4.10000E-01
 -1       206 9.50000E+00 0.00000E+00 4.00000E-01
 -1       207 9.50000E+00 0.00000E+00 4.00000E-01
 -1       209 9.50000E+00 0.00000E+00 3.00000E-01
 -1       210 9.50000E+00 0.00000E+00 3.00000E-01
 -1       212 9.50000E+00 0.00000E+00 2.00000E-01
 -1       213 9.50000E+00 0.00000E+00 2.00000E-01
 -1       215 9.50000E+00 0.00000E+00 1.00000E-01
 -1       216 9.50000E+00 0.00000E+00 1.00000E-01
 -1       218 9.50000E+00 0.00000E+00-5.55112E-17
 -1       219 9.50000E+00 0.00000E+00-5.55112E-17
 -1       221 9.50000E+00 0.00000E+00-1.00000E-01
 -1       222 9.50000E+00 0.00000E+00-1.00000E-01
 -1       224 9.50000E+00 0.00000E+00-2.00000E-01
 -1       225 9.50000E+00 0.00000E+00-2.00000E-01
 -1       227 9.50000E+00 0.00000E+00-3.00000E-01
 -1       228 9.50000E+00 0.00000E+00-3.00000E-01
 -1       230 9.50000E+00 0.00000E+00-4.00000E-01
 -1       231 9.50000E+00 0.00000E+00-4.00000E-01
 -1       233 9.50000E+00 0.00000E+00-5.00000E-01
 -1       237 9.00000E+00 5.00000E-01 5.00000E-01
 -1       239 9.00000E+00 5.00000E-01 4.10000E-01
 -1       240 9.00000E+00 5.00000E-01 4.10000E-01
 -1       242 9.00000E+00 5.00000E-01 4.00000E-01
 -1       243 9.00000E+00 5.00000E-01 4.00000E-01
 -1       245 9.00000E+00 5.00000E-01 3.00000E-01
 -1       246 9.00000E+00 5.00000E-01 3.00000E-01
 -1       248 9.00000E+00 5.00000E-01 2.00000E-01
 -1       249 9.00000E+00 5.00000E-01 2.00000E-01
 -1       251 9.00000E+00 5.00000E-01 1.00000E-01
 -1       252 9.00000E+00 5.00000E-01 1.00000E-01
 -1       254 9.00000E+00 5.00000E-01-5.55112E-17
 -1       255 9.00000E+00 5.00000E-01-5.55112E-17
 -1       257 9.00000E+00 5.00000E-01-1.00000E-01
 -1       258 9.00000E+00 5.00000E-01-1.00000E-01
 -1       260 9.00000E+00 5.00000E-01-2.00000E-01
 -1       261 9.00000E+00 5.00000E-01-2.00000E-01
 -1       263 9.00000E+00 5.00000E-01-3.00000E-01
 -1       264 9.00000E+00 5.00000E-01-3.00000E-01
 -1       266 9.00000E+00 5.00000E-01-4.00000E-01
 -1       267 9.00000E+00 5.00000E-01-4.00000E-01
 -1       269 9.00000E+00 5.00000E-01-5.00000E-01
 -1       273 9.50000E+00 1.00000E+00 5.00000E-01
 -1       275 9.50000E+00 1.00000E+00 4.10000E-01
 -1       276 9.50000E+00 1.00000E+00 4.10000E-01
 -1       278 9.50000E+00 1.00000E+00 4.00000E-01
 -1       279 9.50000E+00 1.00000E+00 4.00000E-01
 -1       281 9.50000E+00 1.00000E+00 3.00000E-01
 -1       282 9.50000E+00 1.00000E+00 3.00000E-01
 -1       284 9.50000E+00 1.00000E+00 2.00000E-01
 -1       285 9.50000E+00 1.00000E+00 2.00000E-01
 -1       287 9.50000E+00 1.00000E+00 1.00000E-01
 -1       288 9.50000E+00 1.00000E+00 1.00000E-01
 -1       290 9.50000E+00 1.00000E+00-5.55112E-17
 -1       291 9.50000E+00 1.00000E+00-5.55112E-17
 -1       293 9.50000E+00 1.00000E+00-1.00000E-01
 -1       294 9.50000E+00 1.00000E+00-1.00000E-01
 -1       296 9.50000E+00 1.00000E+00-2.00000E-01
 -1       297 9.50000E+00 1.00000E+00-2.00000E-01
 -1       299 9.50000E+00 1.00000E+00-3.00000E-01
 -1       300 9.50000E+00 1.00000E+00-3.00000E-01
 -1       302 9.50000E+00 1.00000E+00-4.00000E-01
 -1       303 9.50000E+00 1.00000E+00-4.00000E-01
 -1       305 9.50000E+00 1.00000E+00-5.00000E-01
 -1       309 1.00000E+01 5.00000E-01 5.00000E-01
 -1       311 1.00000E+01 5.00000E-01 4.10000E-01
 -1       312 1.00000E+01 5.00000E-01 4.10000E-01
 -1       314 1.00000E+01 5.00000E-01 4.00000E-01
 -1       315 1.00000E+01 5.00000E-01 4.00000E-01
 -1       317 1.00000E+01 5.00000E-01 3.00000E-01
 -1       318 1.00000E+01 5.00000E-01 3.00000E-01
 -1       320 1.00000E+01 5.00000E-01 2.00000E-01
 -1       321 1.00000E+01 5.00000E-01 2.00000E-01
 -1       323 1.00000E+01 5.00000E-01 1.00000E-01
 -1       324 1.00000E+01 5.00000E-01 1.00000E-01
 -1       326 1.00000E+01 5.00000E-01-5.55112E-17
 -1       327 1.00000E+01 5.00000E-01-5.55112E-17
 -1       329 1.00000E+01 5.00000E-01-1.00000E-01
 -1       330 1.00000E+01 5.00000E-01-1.00000E-01
 -1       332 1.00000E+01 5.00000E-01-2.00000E-01
 -1       333 1.00000E+01 5.00000E-01-2.00000E-01
 -1       335 1.00000E+01 5.00000E-01-3.00000E-01
 -1       336 1.00000E+01 5.00000E-01-3.00000E-01
 -1       338 1.00000E+01 5.00000E-01-4.00000E-01
 -1       339 1.00000E+01 5.00000E-01-4.00000E-01
 -1       341 1.00000E+01 5.00000E-01-5.00000E-01
 -1       345 8.00000E+00 0.00000E+00 5.00000E-01
 -1       346 8.00000E+00 0.00000E+00 4.55000E-01
 -1       347 8.00000E+00 0.00000E+00 4.10000E-01
 -1       348 8.00000E+00 0.00000E+00 4.10000E-01
 -1       349 8.00000E+00 0.00000E+00 4.05000E-01
 -1       350 8.00000E+00 0.00000E+00 4.00000E-01
 -1       351 8.00000E+00 0.00000E+00 4.00000E-01
 -1       352 8.00000E+00 0.00000E+00 3.50000E-01
 -1       353 8.00000E+00 0.00000E+00 3.00000E-01
 -1       354 8.00000E+00 0.00000E+00 3.00000E-01
 -1       355 8.00000E+00 0.00000E+00 2.50000E-01
 -1       356 8.00000E+00 0.00000E+00 2.00000E-01
 -1       357 8.00000E+00 0.00000E+00 2.00000E-01
 -1       358 8.00000E+00 0.00000E+00 1.50000E-01
 -1       359 8.00000E+00 0.00000E+00 1.00000E-01
 -1       360 8.00000E+00 0.00000E+00 1.00000E-01
 -1       361 8.00000E+00 0.00000E+00 5.00000E-02
 -1       362 8.00000E+00 0.00000E+00-5.55112E-17
 -1       363 8.00000E+00 0.00000E+00-5.55112E-17
 -1       364 8.00000E+00 0.00000E+00-5.00000E-02
 -1       365 8.00000E+00 0.00000E+00-1.00000E-01
 -1       366 8.00000E+00 0.00000E+00-1.00000E-01
 -1       367 8.00000E+00 0.00000E+00-1.50000E-01
 -1       368 8.00000E+00 0.00000E+00-2.00000E-01
 -1       369 8.00000E+00 0.00000E+00-2.00000E-01
 -1       370 8.00000E+00 0.00000E+00-2.50000E-01
 -1       371 8.00000E+00 0.00000E+00-3.00000E-01
 -1       372 8.00000E+00 0.00000E+00-3.00000E-01
 -1       373 8.00000E+00 0.00000E+00-3.50000E-01
 -1       374 8.00000E+00 0.00000E+00-4.00000E-01
 -1       375 8.00000E+00 0.00000E+00-4.00000E-01
 -1       376 8.00000E+00 0.00000E+00-4.50000E-01
 -1       377 8.00000E+00 0.00000E+00-5.00000E-01
 -1       381 8.00000E+00 1.00000E+00 5.00000E-01
 -1       382 8.00000E+00 1.00000E+00 4.55000E-01
 -1       383 8.00000E+00 1.00000E+00 4.10000E-01
 -1       384 8.00000E+00 1.00000E+00 4.10000E-01
 -1       385 8.00000E+00 1.00000E+00 4.05000E-01
 -1       386 8.00000E+00 1.00000E+00 4.00000E-01
 -1       387 8.00000E+00 1.00000E+00 4.00000E-01
 -1       388 8.00000E+00 1.00000E+00 3.50000E-01
 -1       389 8.00000E+00 1.00000E+00 3.00000E-01
 -1       390 8.00000E+00 1.00000E+00 3.00000E-01
 -1       391 8.00000E+00 1.00000E+00 2.50000E-01
 -1       392 8.00000E+00 1.00000E+00 2.00000E-01
 -1       393 8.00000E+00 1.00000E+00 2.00000E-01
 -1       394 8.00000E+00 1.00000E+00 1.50000E-01
 -1       395 8.00000E+00 1.00000E+00 1.00000E-01
 -1       396 8.00000E+00 1.00000E+00 1.00000E-01
 -1       397 8.00000E+00 1.00000E+00 5.00000E-02
 -1       398 8.00000E+00 1.00000E+00-5.55112E-17
 -1       399 8.00000E+00 1.00000E+00-5.55112E-17
 -1       400 8.00000E+00 1.00000E+00-5.00000E-02
 -1       401 8.00000E+00 1.00000E+00-1.00000E-01
 -1       402 8.00000E+00 1.00000E+00-1.00000E-01
 -1       403 8.00000E+00 1.00000E+00-1.50000E-01
 -1       404 8.00000E+00 1.00000E+00-2.00000E-01
 -1       405 8.00000E+00 1.00000E+00-2.00000E-01
 -1       406 8.00000E+00 1.00000E+00-2.50000E-01
 -1       407 8.00000E+00 1.00000E+00-3.00000E-01
 -1       408 8.00000E+00 1.00000E+00-3.00000E-01
 -1       409 8.00000E+00 1.00000E+00-3.50000E-01
 -1       410 8.00000E+00 1.00000E+00-4.00000E-01
 -1       411 8.00000E+00 1.00000E+00-4.00000E-01
 -1       412 8.00000E+00 1.00000E+00-4.50000E-01
 -1       413 8.00000E+00 1.00000E+00-5.00000E-01
 -1       417 8.50000E+00 0.00000E+00 5.00000E-01
 -1       419 8.50000E+00 0.00000E+00 4.10000E-01
 -1       420 8.50000E+00 0.00000E+00 4.10000E-01
 -1       422 8.50000E+00 0.00000E+00 4.00000E-01
 -1       423 8.50000E+00 0.00000E+00 4.00000E-01
 -1       425 8.50000E+00 0.00000E+00 3.00000E-01
 -1       426 8.50000E+00 0.00000E+00 3.00000E-01
 -1       428 8.50000E+00 0.00000E+00 2.00000E-01
 -1       429 8.50000E+00 0.00000E+00 2.00000E-01
 -1       431 8.50000E+00 0.00000E+00 1.00000E-01
 -1       432 8.50000E+00 0.00000E+00 1.00000E-01
 -1       434 8.50000E+00 0.00000E+00-5.55112E-17
 -1       435 8.50000E+00 0.00000E+00-5.55112E-17
 -1       437 8.50000E+00 0.00000E+00-1.00000E-01
 -1       438 8.50000E+00 0.00000E+00-1.00000E-01
 -1       440 8.50000E+00 0.00000E+00-2.00000E-01
 -1       441 8.50000E+00 0.00000E+00-2.00000E-01
 -1       443 8.50000E+00 0.00000E+00-3.00000E-01
 -1       444 8.50000E+00 0.00000E+00-3.00000E-01
 -1       446 8.50000E+00 0.00000E+00-4.00000E-01
 -1       447 8.50000E+00 0.00000E+00-4.00000E-01
 -1       449 8.50000E+00 0.00000E+00-5.00000E-01
 -1       453 8.00000E+00 5.00000E-01 5.00000E-01
 -1       455 8.00000E+00 5.00000E-01 4.10000E-01
 -1       456 8.00000E+00 5.00000E-01 4.10000E-01
 -1       458 8.00000E+00 5.00000E-01 4.00000E-01
 -1       459 8.00000E+00 5.00000E-01 4.00000E-01
 -1       461 8.00000E+00 5.00000E-01 3.00000E-01
 -1       462 8.00000E+00 5.00000E-01 3.00000E-01
 -1       464 8.00000E+00 5.00000E-01 2.00000E-01
 -1       465 8.00000E+00 5.00000E-01 2.00000E-01
 -1       467 8.00000E+00 5.00000E-01 1.00000E-01
 -1       468 8.00000E+00 5.00000E-01 1.00000E-01
 -1       470 8.00000E+00 5.00000E-01-5.55112E-17
 -1       471 8.00000E+00 5.00000E-01-5.55112E-17
 -1       473 8.00000E+00 5.00000E-01-1.00000E-01
 -1       474 8.00000E+00 5.00000E-01-1.00000E-01
 -1       476 8.00000E+00 5.00000E-01-2.00000E-01
 -1       477 8.00000E+00 5.00000E-01-2.00000E-01
 -1       479 8.00000E+00 5.00000E-01-3.00000E-01
 -1       480 8.00000E+00 5.00000E-01-3.00000E-01
 -1       482 8.00000E+00 5.00000E-01-4.00000E-01
 -1       483 8.00000E+00 5.00000E-01-4.00000E-01
 -1       485 8.00000E+00 5.00000E-01-5.00000E-01
 -1       489 8.50000E+00 1.00000E+00 5.00000E-01
 -1       491 8.50000E+00 1.00000E+00 4.10000E-01
 -1       492 8.50000E+00 1.00000E+00 4.10000E-01
 -1       494 8.50000E+00 1.00000E+00 4.00000E-01
 -1       495 8.50000E+00 1.00000E+00 4.00000E-01
 -1       497 8.50000E+00 1.00000E+00 3.00000E-01
 -1       498 8.50000E+00 1.00000E+00 3.00000E-01
 -1       500 8.50000E+00 1.00000E+00 2.00000E-01
 -1       501 8.50000E+00 1.00000E+00 2.00000E-01
 -1       503 8.50000E+00 1.00000E+00 1.00000E-01
 -1       504 8.50000E+00 1.00000E+00 1.00000E-01
 -1       506 8.50000E+00 1.00000E+00-5.55112E-17
 -1       507 8.50000E+00 1.00000E+00-5.55112E-17
 -1       509 8.50000E+00 1.00000E+00-1.00000E-01
 -1       510 8.50000E+00 1.00000E+00-1.00000E-01
 -1       512 8.50000E+00 1.00000E+00-2.00000E-01
 -1       513 8.50000E+00 1.00000E+00-2.00000E-01
 -1       515 8.50000E+00 1.00000E+00-3.00000E-01
 -1       516 8.50000E+00 1.00000E+00-3.00000E-01
 -1       518 8.50000E+00 1.00000E+00-4.00000E-01
 -1       519 8.50000E+00 1.00000E+00-4.00000E-01
 -1       521 8.50000E+00 1.00000E+00-5.00000E-01
 -1       525 7.00000E+00 0.00000E+00 5.00000E-01
 -1       526 7.00000E+00 0.00000E+00 4.55000E-01
 -1       527 7.00000E+00 0.00000E+00 4.10000E-01
 -1       528 7.00000E+00 0.00000E+00 4.10000E-01
 -1       529 7.00000E+00 0.00000E+00 4.05000E-01
 -1       530 7.00000E+00 0.00000E+00 4.00000E-01
 -1       531 7.00000E+00 0.00000E+00 4.00000E-01
 -1       532 7.00000E+00 0.00000E+00 3.50000E-01
 -1       533 7.00000E+00 0.00000E+00 3.00000E-01
 -1       534 7.00000E+00 0.00000E+00 3.00000E-01
 -1       535 7.00000E+00 0.00000E+00 2.50000E-01
 -1       536 7.00000E+00 0.00000E+00 2.00000E-01
 -1       537 7.00000E+00 0.00000E+00 2.00000E-01
 -1       538 7.00000E+00 0.00000E+00 1.50000E-01
 -1       539 7.00000E+00 0.00000E+00 1.00000E-01
 -1       540 7.00000E+00 0.00000E+00 1.00000E-01
 -1       541 7.00000E+00 0.00000E+00 5.00000E-02
 -1       542 7.00000E+00 0.00000E+00-5.55112E-17
 -1       543 7.00000E+00 0.00000E+00-5.55112E-17
 -1       544 7.00000E+00 0.00000E+00-5.00000E-02
 -1       545 7.00000E+00 0.00000E+00-1.00000E-01
 -1       546 7.00000E+00 0.00000E+00-1.00000E-01
 -1       547 7.00000E+00 0.00000E+00-1.50000E-01
 -1       548 7.00000E+00 0.00000E+00-2.00000E-01
 -1       549 7.00000E+00 0.00000E+00-2.00000E-01
 -1       550 7.00000E+00 0.00000E+00-2.50000E-01
 -1       551 7.00000E+00 0.00000E+00-3.00000E-01
 -1       552 7.00000E+00 0.00000E+00-3.00000E-01
 -1       553 7.00000E+00 0.00000E+00-3.50000E-01
 -1       554 7.00000E+00 0.00000E+00-4.00000E-01
 -1       555 7.00000E+00 0.00000E+00-4.00000E-01
 -1       556 7.00000E+00 0.00000E+00-4.50000E-01
 -1       557 7.00000E+00 0.00000E+00-5.00000E-01
 -1       561 7.00000E+00 1.00000E+00 5.00000E-01
 -1       562 7.00000E+00 1.00000E+00 4.55000E-01
 -1       563 7.00000E+00 1.00000E+00 4.10000E-01
 -1       564 7.00000E+00 1.00000E+00 4.10000E-01
 -1       565 7.00000E+00 1.00000E+00 4.05000E-01
 -1       566 7.00000E+00 1.00000E+00 4.00000E-01
 -1       567 7.00000E+00 1.00000E+00 4.00000E-01
 -1       568 7.00000E+00 1.00000E+00 3.50000E-01
 -1       569 7.00000E+00 1.00000E+00 3.00000E-01
 -1       570 7.00000E+00 1.00000E+00 3.00000E-01
 -1       571 7.00000E+00 1.00000E+00 2.50000E-01
 -1       572 7.00000E+00 1.00000E+00 2.00000E-01
 -1       573 7.00000E+00 1.00000E+00 2.00000E-01
 -1       574 7.00000E+00 1.00000E+00 1.50000E-01
 -1       575 7.00000E+00 1.00000E+00 1.00000E-01
 -1       576 7.00000E+00 1.00000E+00 1.00000E-01
 -1       577 7.00000E+00 1.00000E+00 5.00000E-02
 -1       578 7.00000E+00 1.00000E+00-5.55112E-17
 -1       579 7.00000E+00 1.00000E+00-5.55112E-17
 -1       580 7.00000E+00 1.00000E+00-5.00000E-02
 -1       581 7.00000E+00 1.00000E+00-1.00000E-01
 -1       582 7.00000E+00 1.00000E+00-1.00000E-01
 -1       583 7.00000E+00 1.00000E+00-1.50000E-01
 -1       584 7.00000E+00 1.00000E+00-2.00000E-01
 -1       585 7.00000E+00 1.00000E+00-2.00000E-01
 -1       586 7.00000E+00 1.00000E+00-2.50000E-01
 -1       587 7.00000E+00 1.00000E+00-3.00000E-01
 -1       588 7.00000E+00 1.00000E+00-3.00000E-01
 -1       589 7.00000E+00 1.00000E+00-3.50000E-01
 -1       590 7.00000E+00 1.00000E+00-4.00000E-01
 -1       591 7.00000E+00 1.00000E+00-4.00000E-01
 -1       592 7.00000E+00 1.00000E+00-4.50000E-01
 -1       593 7.00000E+00 1.00000E+00-5.00000E-01
 -1       597 7.50000E+00 0.00000E+00 5.00000E-01
 -1       599 7.50000E+00 0.00000E+00 4.10000E-01
 -1       600 7.50000E+00 0.00000E+00 4.10000E-01
 -1       602 7.50000E+00 0.00000E+00 4.00000E-01
 -1       603 7.50000E+00 0.00000E+00 4.00000E-01
 -1       605 7.50000E+00 0.00000E+00 3.00000E-01
 -1       606 7.50000E+00 0.00000E+00 3.00000E-01
 -1       608 7.50000E+00 0.00000E+00 2.00000E-01
 -1       609 7.50000E+00 0.00000E+00 2.00000E-01
 -1       611 7.50000E+00 0.00000E+00 1.00000E-01
 -1       612 7.50000E+00 0.00000E+00 1.00000E-01
 -1       614 7.50000E+00 0.00000E+00-5.55112E-17
 -1       615 7.50000E+00 0.00000E+00-5.55112E-17
 -1       617 7.50000E+00 0.00000E+00-1.00000E-01
 -1       618 7.50000E+00 0.00000E+00-1.00000E-01
 -1       620 7.50000E+00 0.00000E+00-2.00000E-01
 -1       621 7.50000E+00 0.00000E+00-2.00000E-01
 -1       623 7.50000E+00 0.00000E+00-3.00000E-01
 -1       624 7.50000E+00 0.00000E+00-3.00000E-01
 -1       626 7.50000E+00 0.00000E+00-4.00000E-01
 -1       627 7.50000E+00 0.00000E+00-4.00000E-01
 -1       629 7.50000E+00 0.00000E+00-5.00000E-01
 -1       633 7.00000E+00 5.00000E-01 5.00000E-01
 -1       635 7.00000E+00 5.00000E-01 4.10000E-01
 -1       636 7.00000E+00 5.00000E-01 4.10000E-01
 -1       638 7.00000E+00 5.00000E-01 4.00000E-01
 -1       639 7.00000E+00 5.00000E-01 4.00000E-01
 -1       641 7.00000E+00 5.00000E-01 3.00000E-01
 -1       642 7.00000E+00 5.00000E-01 3.00000E-01
 -1       644 7.00000E+00 5.00000E-01 2.00000E-01
 -1       645 7.00000E+00 5.00000E-01 2.00000E-01
 -1       647 7.00000E+00 5.00000E-01 1.00000E-01
 -1       648 7.00000E+00 5.00000E-01 1.00000E-01
 -1       650 7.00000E+00 5.00000E-01-5.55112E-17
 -1       651 7.00000E+00 5.00000E-01-5.55112E-17
 -1       653 7.00000E+00 5.00000E-01-1.00000E-01
 -1       654 7.00000E+00 5.00000E-01-1.00000E-01
 -1       656 7.00000E+00 5.00000E-01-2.00000E-01
 -1       657 7.00000E+00 5.00000E-01-2.00000E-01
 -1       659 7.00000E+00 5.00000E-01-3.00000E-01
 -1       660 7.00000E+00 5.00000E-01-3.00000E-01
 -1       662 7.00000E+00 5.00000E-01-4.00000E-01
 -1       663 7.00000E+00 5.00000E-01-4.00000E-01
 -1       665 7.00000E+00 5.00000E-01-5.00000E-01
 -1       669 7.50000E+00 1.00000E+00 5.00000E-01
 -1       671 7.50000E+00 1.00000E+00 4.10000E-01
 -1       672 7.50000E+00 1.00000E+00 4.10000E-01
 -1       674 7.50000E+00 1.00000E+00 4.00000E-01
 -1       675 7.50000E+00 1.00000E+00 4.00000E-01
 -1       677 7.50000E+00 1.00000E+00 3.00000E-01
 -1       678 7.50000E+00 1.00000E+00 3.00000E-01
 -1       680 7.50000E+00 1.00000E+00 2.00000E-01
 -1       681 7.50000E+00 1.00000E+00 2.00000E-01
 -1       683 7.50000E+00 1.00000E+00 1.00000E-01
 -1       684 7.50000E+00 1.00000E+00 1.00000E-01
 -1       686 7.50000E+00 1.00000E+00-5.55112E-17
 -1       687 7.50000E+00 1.00000E+00-5.55112E-17
 -1       689 7.50000E+00 1.00000E+00-1.00000E-01
 -1       690 7.50000E+00 1.00000E+00-1.00000E-01
 -1       692 7.50000E+00 1.00000E+00-2.00000E-01
 -1       693 7.50000E+00 1.00000E+00-2.00000E-01
 -1       695 7.50000E+00 1.00000E+00-3.00000E-01
 -1       696 7.50000E+00 1.00000E+00-3.00000E-01
 -1       698 7.50000E+00 1.00000E+00-4.00000E-01
 -1       699 7.50000E+00 1.00000E+00-4.00000E-01
 -1       701 7.50000E+00 1.00000E+00-5.00000E-01
 -1       705 6.00000E+00 0.00000E+00 5.00000E-01
 -1       706 6.00000E+00 0.00000E+00 4.55000E-01
 -1       707 6.00000E+00 0.00000E+00 4.10000E-01
 -1       708 6.00000E+00 0.00000E+00 4.10000E-01
 -1       709 6.00000E+00 0.00000E+00 4.05000E-01
 -1       710 6.00000E+00 0.00000E+00 4.00000E-01
 -1       711 6.00000E+00 0.00000E+00 4.00000E-01
 -1       712 6.00000E+00 0.00000E+00 3.50000E-01
 -1       713 6.00000E+00 0.00000E+00 3.00000E-01
 -1       714 6.00000E+00 0.00000E+00 3.00000E-01
 -1       715 6.00000E+00 0.00000E+00 2.50000E-01
 -1       716 6.00000E+00 0.00000E+00 2.00000E-01
 -1       717 6.00000E+00 0.00000E+00 2.00000E-01
 -1       718 6.00000E+00 0.00000E+00 1.50000E-01
 -1       719 6.00000E+00 0.00000E+00 1.00000E-01
 -1       720 6.00000E+00 0.00000E+00 1.00000E-01
 -1       721 6.00000E+00 0.00000E+00 5.00000E-02
 -1       722 6.00000E+00 0.00000E+00-5.55112E-17
 -1       723 6.00000E+00 0.00000E+00-5.55112E-17
 -1       724 6.00000E+00 0.00000E+00-5.00000E-02
 -1       725 6.00000E+00 0.00000E+00-1.00000E-01
 -1       726 6.00000E+00 0.00000E+00-1.00000E-01
 -1       727 6.00000E+00 0.00000E+00-1.50000E-01
 -1       728 6.00000E+00 0.00000E+00-2.00000E-01
 -1       729 6.00000E+00 0.00000E+00-2.00000E-01
 -1       730 6.00000E+00 0.00000E+00-2.50000E-01
 -1       731 6.00000E+00 0.00000E+00-3.00000E-01
 -1       732 6.00000E+00 0.00000E+00-3.00000E-01
 -1       733 6.00000E+00 0.00000E+00-3.50000E-01
 -1       734 6.00000E+00 0.00000E+00-4.00000E-01
 -1       735 6.00000E+00 0.00000E+00-4.00000E-01
 -1       736 6.00000E+00 0.00000E+00-4.50000E-01
 -1       737 6.00000E+00 0.00000E+00-5.00000E-01
 -1       741 6.00000E+00 1.00000E+00 5.00000E-01
 -1       742 6.00000E+00 1.00000E+00 4.55000E-01
 -1       743 6.00000E+00 1.00000E+00 4.10000E-01
 -1       744 6.00000E+00 1.00000E+00 4.10000E-01
 -1       745 6.00000E+00 1.00000E+00 4.05000E-01
 -1       746 6.00000E+00 1.00000E+00 4.00000E-01
 -1       747 6.00000E+00 1.00000E+00 4.00000E-01
 -1       748 6.00000E+00 1.00000E+00 3.50000E-01
 -1       749 6.00000E+00 1.00000E+00 3.00000E-01
 -1       750 6.00000E+00 1.00000E+00 3.00000E-01
 -1       751 6.00000E+00 1.00000E+00 2.50000E-01
 -1       752 6.00000E+00 1.00000E+00 2.00000E-01
 -1       753 6.00000E+00 1.00000E+00 2.00000E-01
 -1       754 6.00000E+00 1.00000E+00 1.50000E-01
 -1       755 6.00000E+00 1.00000E+00 1.00000E-01
 -1       756 6.00000E+00 1.00000E+00 1.00000E-01
 -1       757 6.00000E+00 1.00000E+00 5.00000E-02
 -1       758 6.00000E+00 1.00000E+00-5.55112E-17
 -1       759 6.00000E+00 1.00000E+00-5.55112E-17
 -1       760 6.00000E+00 1.00000E+00-5.00000E-02
 -1       761 6.00000E+00 1.00000E+00-1.00000E-01
 -1       762 6.00000E+00 1.00000E+00-1.00000E-01
 -1       763 6.00000E+00 1.00000E+00-1.50000E-01
 -1       764 6.00000E+00 1.00000E+00-2.00000E-01
 -1       765 6.00000E+00 1.00000E+00-2.00000E-01
 -1       766 6.00000E+00 1.00000E+00-2.50000E-01
 -1       767 6.00000E+00 1.00000E+00-3.00000E-01
 -1       768 6.00000E+00 1.00000E+00-3.00000E-01
 -1       769 6.00000E+00 1.00000E+00-3.50000E-01
 -1       770 6.00000E+00 1.00000E+00-4.00000E-01
 -1       771 6.00000E+00 1.00000E+00-4.00000E-01
 -1       772 6.00000E+00 1.00000E+00-4.50000E-01
 -1       773 6.00000E+00 1.00000E+00-5.00000E-01
 -1       777 6.50000E+00 0.00000E+00 5.00000E-01
 -1       779 6.50000E+00 0.00000E+00 4.10000E-01
 -1       780 6.50000E+00 0.00000E+00 4.10000E-01
 -1       782 6.50000E+00 0.00000E+00 4.00000E-01
 -1       783 6.50000E+00 0.00000E+00 4.00000E-01
 -1       785 6.50000E+00 0.00000E+00 3.00000E-01
 -1       786 6.50000E+00 0.00000E+00 3.00000E-01
 -1       788 6.50000E+00 0.00000E+00 2.00000E-01
 -1       789 6.50000E+00 0.00000E+00 2.00000E-01
 -1       791 6.50000E+00 0.00000E+00 1.00000E-01
 -1       792 6.50000E+00 0.00000E+00 1.00000E-01
 -1       794 6.50000E+00 0.00000E+00-5.55112E-17
 -1       795 6.50000E+00 0.00000E+00-5.55112E-17
 -1       797 6.50000E+00 0.00000E+00-1.00000E-01
 -1       798 6.50000E+00 0.00000E+00-1.00000E-01
 -1       800 6.50000E+00 0.00000E+00-2.00000E-01
 -1       801 6.50000E+00 0.00000E+00-2.00000E-01
 -1       803 6.50000E+00 0.00000E+00-3.00000E-01
 -1       804 6.50000E+00 0.00000E+00-3.00000E-01
 -1       806 6.50000E+00 0.00000E+00-4.00000E-01
 -1       807 6.50000E+00 0.00000E+00-4.00000E-01
 -1       809 6.50000E+00 0.00000E+00-5.00000E-01
 -1       813 6.00000E+00 5.00000E-01 5.00000E-01
 -1       815 6.00000E+00 5.00000E-01 4.10000E-01
 -1       816 6.00000E+00 5.00000E-01 4.10000E-01
 -1       818 6.00000E+00 5.00000E-01 4.00000E-01
 -1       819 6.00000E+00 5.00000E-01 4.00000E-01
 -1       821 6.00000E+00 5.00000E-01 3.00000E-01
 -1       822 6.00000E+00 5.00000E-01 3.00000E-01
 -1       824 6.00000E+00 5.00000E-01 2.00000E-01
 -1       825 6.00000E+00 5.00000E-01 2.00000E-01
 -1       827 6.00000E+00 5.00000E-01 1.00000E-01
 -1       828 6.00000E+00 5.00000E-01 1.00000E-01
 -1       830 6.00000E+00 5.00000E-01-5.55112E-17
 -1       831 6.00000E+00 5.00000E-01-5.55112E-17