
 displacements (vx,vy,vz) for set NALL and time  0.1000000E+01

         1  0.000000E+00  0.000000E+00  0.000000E+00
         2  0.000000E+00  0.000000E+00  0.000000E+00
         3  3.128773E-13  3.495252E-20 -1.904762E-05
         4  3.128773E-13  3.498033E-20 -1.904762E-05
         5  0.000000E+00  0.000000E+00  0.000000E+00
         6  0.000000E+00  0.000000E+00  0.000000E+00
         7  3.128773E-13 -3.867669E-20 -1.904762E-05
         8  3.128773E-13 -3.875258E-20 -1.904762E-05
         9  0.000000E+00  0.000000E+00 -2.904767E-05
        10  0.000000E+00  0.000000E+00 -2.904767E-05
        11  1.249189E-13  1.822963E-17 -1.242862E-04
        12  1.249052E-13  4.548592E-18 -1.242862E-04
        13  0.000000E+00  0.000000E+00 -2.904767E-05
        14  0.000000E+00  0.000000E+00 -2.904767E-05
        15  1.249052E-13  3.192721E-17 -1.242862E-04
        16  1.248915E-13  1.824138E-17 -1.242862E-04

 forces (fx,fy,fz) for set NALL and time  0.1000000E+01

         1  3.879437E-15  3.919427E-15  1.000000E+00
         2 -3.928995E-15  3.919302E-15  1.000000E+00
         3 -8.224224E-20 -4.771862E-18 -4.027730E-12
         4 -9.056695E-19 -4.698881E-18 -3.643721E-12
         5  3.888126E-15 -3.916164E-15  1.000000E+00
         6 -3.934173E-15 -3.914777E-15  1.000000E+00
         7 -3.089901E-18  2.771508E-18 -2.759667E-12
         8  2.547226E-17 -1.087763E-18 -2.317764E-12
         9  5.912414E-17 -2.874328E-13  3.563896E-12
        10  2.875168E-13 -2.464036E-19  5.936656E-12
        11 -2.725318E-17 -2.875996E-18 -1.000000E+00
        12 -2.627427E-17 -3.010327E-17 -1.000000E+00
        13 -2.874040E-13  2.524358E-17 -3.236689E-12
        14  3.119345E-17  2.874714E-13  6.485396E-12
        15 -1.740411E-17  1.671276E-17 -1.000000E+00
        16 -5.802857E-17 -4.726541E-17 -1.000000E+00

 internal energy (element, energy) for set EALL and time  0.1000000E+01

         1  3.809524E-05
         2  1.904772E-04

 total internal energy for set EALL and time  0.1000000E+01

        2.285724E-04

 contact print energy (slave element+face,energy)for all contact elements and time 0.1000000E+01
         2          3  1.125006E-06
         2          3  6.296991E-07
         2          3  6.296991E-07
         2          3  6.296991E-07
         2          3  6.619741E-07
         2          3  6.619741E-07
         2          3  6.619741E-07
         2          3  1.125006E-06
         2          3  6.296991E-07
         2          3  6.296991E-07
         2          3  6.296991E-07
         2          3  6.619741E-07
         2          3  6.619741E-07
         2          3  6.619741E-07
         2          3  1.125006E-06
         2          3  6.296991E-07
         2          3  6.296991E-07
         2          3  6.296991E-07
         2          3  6.619741E-07
         2          3  6.619741E-07
         2          3  6.619741E-07
         2          3  1.125006E-06
         2          3  6.296991E-07
         2          3  6.296991E-07
         2          3  6.296991E-07
         2          3  6.619741E-07
         2          3  6.619741E-07
         2          3  6.619741E-07

 total contact spring energy for time  0.1000000E+01

        2.000010E-05
