
 displacements (vx,vy,vz) for set NALL and time  0.1000000E+01

         1  0.000000E+00  0.000000E+00  0.000000E+00
         2  0.000000E+00  0.000000E+00  0.000000E+00
         3 -2.801442E-05  2.801442E-05 -5.475018E-05
         4 -2.801442E-05 -2.801442E-05 -5.475018E-05
         5  0.000000E+00  0.000000E+00  0.000000E+00
         6  0.000000E+00  0.000000E+00  0.000000E+00
         7  2.801442E-05  2.801442E-05 -5.475018E-05
         8  2.801442E-05 -2.801442E-05 -5.475018E-05
         9  0.000000E+00  0.000000E+00  0.000000E+00
        10  5.445333E-06 -5.445333E-06 -2.737403E-05
        11 -2.801186E-05  1.975870E-13 -1.029922E-04
        12  5.445333E-06  5.445333E-06 -2.737403E-05
        13  0.000000E+00  0.000000E+00  0.000000E+00
        14  0.000000E+00  0.000000E+00  0.000000E+00
        15  4.285811E-16  2.801186E-05 -1.029922E-04
        16  5.009283E-16 -2.801185E-05 -1.029922E-04
        17  0.000000E+00  0.000000E+00  0.000000E+00
        18 -5.445333E-06 -5.445333E-06 -2.737403E-05
        19  2.801186E-05  1.975147E-13 -1.029922E-04
        20 -5.445333E-06  5.445333E-06 -2.737403E-05
        21  5.149000E-06  5.149000E-06 -1.400555E-04
        22  5.149000E-06 -5.149000E-06 -1.400555E-04
        23  0.000000E+00  0.000000E+00 -3.964886E-04
        24  0.000000E+00  0.000000E+00 -3.964886E-04
        25 -5.149000E-06  5.149000E-06 -1.400555E-04
        26 -5.149000E-06 -5.149000E-06 -1.400555E-04
        27  0.000000E+00  0.000000E+00 -3.964886E-04
        28  0.000000E+00  0.000000E+00 -3.964886E-04
        29  5.149246E-06 -1.763960E-13 -1.499090E-04
        30 -1.701226E-06  1.701226E-06 -2.682721E-04
        31  0.000000E+00  0.000000E+00 -3.927167E-04
        32 -1.701226E-06 -1.701226E-06 -2.682721E-04
        33 -4.119219E-16  5.149246E-06 -1.499090E-04
        34  6.080295E-17 -5.149246E-06 -1.499090E-04
        35  0.000000E+00  0.000000E+00 -3.927167E-04
        36  0.000000E+00  0.000000E+00 -3.927167E-04
        37 -5.149246E-06 -1.759249E-13 -1.499090E-04
        38  1.701226E-06  1.701226E-06 -2.682721E-04
        39  0.000000E+00  0.000000E+00 -3.927167E-04
        40  1.701226E-06 -1.701226E-06 -2.682721E-04
