    1C
    1UUSER                                                              
    1UDATE              04.march.2015                                   
    1UTIME              20:01:18                                        
    1UHOST                                                              
    1UPGM               CalculiX                                        
    1UDIR                                                               
    1UDBN                                                               
    1UMAT    1SI1                                                       
    1UMAT    2EL                                                        
    2C                            28                                     1
 -1         1 1.00000E+00 1.00000E+00-1.49012E-08
 -1         2 1.00000E+00 0.00000E+00-1.49012E-08
 -1         3 1.00000E+00 0.00000E+00 1.00000E+00
 -1         4 1.00000E+00 1.00000E+00 1.00000E+00
 -1         5-7.45058E-09 1.00000E+00-1.49012E-08
 -1         6-7.45058E-09 0.00000E+00-1.49012E-08
 -1         7-7.45058E-09 0.00000E+00 1.00000E+00
 -1         8-7.45058E-09 1.00000E+00 1.00000E+00
 -1        18 6.41422E-01 5.00000E-01 1.20000E+00
 -1        19 5.00000E-01 3.58578E-01 1.20000E+00
 -1        20 5.00000E-01 3.58578E-01 1.00000E+00
 -1        21 6.41422E-01 5.00000E-01 1.00000E+00
 -1        22 5.70711E-01 4.29289E-01 1.20000E+00
 -1        23 5.00000E-01 3.58578E-01 1.10000E+00
 -1        24 5.70711E-01 4.29289E-01 1.00000E+00
 -1        25 6.41422E-01 5.00000E-01 1.10000E+00
 -1        26 5.00000E-01 6.41422E-01 1.20000E+00
 -1        27 3.58578E-01 5.00000E-01 1.20000E+00
 -1        28 3.58578E-01 5.00000E-01 1.00000E+00
 -1        29 5.00000E-01 6.41422E-01 1.00000E+00
 -1        30 4.29289E-01 5.70711E-01 1.20000E+00
 -1        31 3.58578E-01 5.00000E-01 1.10000E+00
 -1        32 4.29289E-01 5.70711E-01 1.00000E+00
 -1        33 5.00000E-01 6.41422E-01 1.10000E+00
 -1        34 5.70711E-01 5.70711E-01 1.20000E+00
 -1        35 4.29289E-01 4.29289E-01 1.20000E+00
 -1        36 4.29289E-01 4.29289E-01 1.00000E+00
 -1        37 5.70711E-01 5.70711E-01 1.00000E+00
 -3
    3C                             2                                     1
 -1         1    1    0    2
 -2         1         2         3         4         5         6         7         8
 -1         2    4    0    2
 -2        26        18        19        27        29        21        20        28        34        22
 -2        35        30        33        25        23        31        37        24        36        32
 -3
    1PSTEP                         1           1           1          
  100CL  101 1.000000000          28                     0    1           1
 -4  DISP        4    1
 -5  D1          1    2    1    0
 -5  D2          1    2    2    0
 -5  D3          1    2    3    0
 -5  ALL         1    2    0    0    1ALL
 -1         1 0.00000E+00 0.00000E+00 0.00000E+00
 -1         2 0.00000E+00 0.00000E+00 0.00000E+00
 -1         3 0.00000E+00 0.00000E+00-1.41648E-05
 -1         4 0.00000E+00 0.00000E+00-1.41417E-05
 -1         5 0.00000E+00 0.00000E+00 0.00000E+00
 -1         6 0.00000E+00 0.00000E+00 0.00000E+00
 -1         7 0.00000E+00 0.00000E+00-1.41415E-05
 -1         8 0.00000E+00 0.00000E+00-1.41648E-05
 -1        18 1.57219E-05 1.67270E-05-1.13826E-04
 -1        19-1.67245E-05-1.57187E-05-1.13822E-04
 -1        20-1.57439E-05-1.67486E-05-2.63362E-05
 -1        21 1.67465E-05 1.57403E-05-2.63369E-05
 -1        22 7.66171E-06-7.65867E-06-1.15290E-04
 -1        23-1.09455E-05-2.07340E-05-7.02345E-05
 -1        24 8.66351E-06-8.66654E-06-2.55423E-05
 -1        25 2.07338E-05 1.09445E-05-7.02373E-05
 -1        26 1.67265E-05 1.57216E-05-1.13826E-04
 -1        27-1.57188E-05-1.67237E-05-1.13822E-04
 -1        28-1.67485E-05-1.57441E-05-2.63363E-05
 -1        29 1.57408E-05 1.67462E-05-2.63369E-05
 -1        30-7.65894E-06 7.66190E-06-1.15291E-04
 -1        31-2.07340E-05-1.09455E-05-7.02347E-05
 -1        32-8.66628E-06 8.66334E-06-2.55423E-05
 -1        33 1.09448E-05 2.07338E-05-7.02375E-05
 -1        34 8.06043E-06 8.06051E-06-1.19061E-04
 -1        35-8.05796E-06-8.05750E-06-1.19057E-04
 -1        36-8.08303E-06-8.08321E-06-2.38588E-05
 -1        37 8.08056E-06 8.08020E-06-2.38595E-05
 -3
    1PSTEP                         2           1           1          
  100CL  101 1.000000000          28                     0    1           1
 -4  STRESS      6    1
 -5  SXX         1    4    1    1
 -5  SYY         1    4    2    2
 -5  SZZ         1    4    3    3
 -5  SXY         1    4    1    2
 -5  SYZ         1    4    2    3
 -5  SZX         1    4    3    1
 -1         1-1.71326E+00-1.71326E+00-3.99750E+00-7.20157E-12 6.72173E-09 6.70735E-09
 -1         2-1.71606E+00-1.71606E+00-4.00403E+00 7.23821E-12 6.72173E-09-6.54658E-09
 -1         3-1.71606E+00-1.71606E+00-4.00403E+00-3.61918E-11 1.86767E-03-1.87802E-03
 -1         4-1.71326E+00-1.71326E+00-3.99750E+00 3.60086E-11 1.86767E-03 1.86852E-03
 -1         5-1.71606E+00-1.71606E+00-4.00404E+00 7.24478E-12-6.53219E-09 6.70735E-09
 -1         6-1.71325E+00-1.71325E+00-3.99746E+00-7.28164E-12-6.53219E-09-6.54658E-09
 -1         7-1.71325E+00-1.71325E+00-3.99746E+00 3.64089E-11-1.87887E-03-1.87802E-03
 -1         8-1.71606E+00-1.71606E+00-4.00404E+00-3.62246E-11-1.87887E-03 1.86852E-03
 -1        18-3.17250E+00-3.17554E+00-9.99921E+01 2.64578E+00 4.62833E+00-2.35920E-02
 -1        19-3.17437E+00-3.17238E+00-9.99918E+01 2.64624E+00 2.46100E-02-4.62754E+00
 -1        20-9.94582E-01-9.92577E-01-9.99867E+01 1.52328E+00-3.11064E+00 6.21601E+00
 -1        21-9.92904E-01-9.95751E-01-9.99934E+01 1.52280E+00-6.21501E+00 3.11112E+00
 -1        22-3.17344E+00-3.17396E+00-9.99919E+01 2.64601E+00 2.32647E+00-2.32557E+00
 -1        23-2.08448E+00-2.08248E+00-9.99892E+01 2.08476E+00-1.54301E+00 7.94231E-01
 -1        24-9.93743E-01-9.94164E-01-9.99901E+01 1.52304E+00-4.66283E+00 4.66356E+00
 -1        25-2.08270E+00-2.08565E+00-9.99927E+01 2.08429E+00-7.93342E-01 1.54376E+00
 -1        26-3.17561E+00-3.17314E+00-9.99921E+01 2.64540E+00-2.39113E-02 4.62807E+00
 -1        27-3.17303E+00-3.17510E+00-9.99923E+01 2.64599E+00-4.62732E+00 2.46463E-02
 -1        28-9.92229E-01-9.94256E-01-9.99873E+01 1.52344E+00 6.21589E+00-3.11066E+00
 -1        29-9.96029E-01-9.93015E-01-9.99941E+01 1.52324E+00 3.11144E+00-6.21488E+00
 -1        30-3.17432E+00-3.17412E+00-9.99922E+01 2.64569E+00-2.32562E+00 2.32636E+00
 -1        31-2.08263E+00-2.08468E+00-9.99898E+01 2.08471E+00 7.94285E-01-1.54301E+00
 -1        32-9.94129E-01-9.93636E-01-9.99907E+01 1.52334E+00 4.66366E+00-4.66277E+00
 -1        33-2.08582E+00-2.08308E+00-9.99931E+01 2.08432E+00 1.54377E+00-7.93405E-01
 -1        34-3.17406E+00-3.17434E+00-9.99921E+01 2.64559E+00 2.30221E+00 2.30224E+00
 -1        35-3.17370E+00-3.17374E+00-9.99920E+01 2.64612E+00-2.30135E+00-2.30145E+00
 -1        36-9.93406E-01-9.93417E-01-9.99870E+01 1.52336E+00 1.55263E+00 1.55267E+00
 -1        37-9.94467E-01-9.94383E-01-9.99938E+01 1.52302E+00-1.55179E+00-1.55188E+00
 -3
 9999
