    1C
    1UUSER                                                              
    1UDATE              04.march.2015                                   
    1UTIME              20:01:18                                        
    1UHOST                                                              
    1UPGM               CalculiX                                        
    1UDIR                                                               
    1UDBN                                                               
    1UMAT    1SI1                                                       
    1UMAT    2EL                                                        
    2C                            28                                     1
 -1         1 1.00000E+00 1.00000E+00-1.49012E-08
 -1         2 1.00000E+00 0.00000E+00-1.49012E-08
 -1         3 1.00000E+00 0.00000E+00 1.00000E+00
 -1         4 1.00000E+00 1.00000E+00 1.00000E+00
 -1         5-7.45058E-09 1.00000E+00-1.49012E-08
 -1         6-7.45058E-09 0.00000E+00-1.49012E-08
 -1         7-7.45058E-09 0.00000E+00 1.00000E+00
 -1         8-7.45058E-09 1.00000E+00 1.00000E+00
 -1        17 5.00000E-01 6.41421E-01 1.20000E+00
 -1        18 5.00000E-01 6.41421E-01 1.10000E+00
 -1        19 5.00000E-01 6.41421E-01 1.00000E+00
 -1        20 6.41421E-01 5.00000E-01 1.20000E+00
 -1        21 6.41421E-01 5.00000E-01 1.10000E+00
 -1        22 6.41421E-01 5.00000E-01 1.00000E+00
 -1        23 5.70711E-01 5.70711E-01 1.20000E+00
 -1        25 5.70711E-01 5.70711E-01 1.00000E+00
 -1        26 5.70711E-01 4.29289E-01 1.20000E+00
 -1        28 5.70711E-01 4.29289E-01 1.00000E+00
 -1        29 3.58579E-01 5.00000E-01 1.20000E+00
 -1        30 3.58579E-01 5.00000E-01 1.10000E+00
 -1        31 3.58579E-01 5.00000E-01 1.00000E+00
 -1        32 5.00000E-01 3.58579E-01 1.20000E+00
 -1        33 5.00000E-01 3.58579E-01 1.10000E+00
 -1        34 5.00000E-01 3.58579E-01 1.00000E+00
 -1        35 4.29289E-01 4.29289E-01 1.20000E+00
 -1        37 4.29289E-01 4.29289E-01 1.00000E+00
 -1        38 4.29289E-01 5.70711E-01 1.20000E+00
 -1        40 4.29289E-01 5.70711E-01 1.00000E+00
 -3
    3C                             2                                     1
 -1         1    1    0    2
 -2         1         2         3         4         5         6         7         8
 -1         2    4    0    2
 -2        17        20        32        29        19        22        34        31        23        26
 -2        35        38        18        21        33        30        25        28        37        40
 -3
    1PSTEP                         1           1           1          
  100CL  101 1.000000000          28                     0    1           1
 -4  DISP        4    1
 -5  D1          1    2    1    0
 -5  D2          1    2    2    0
 -5  D3          1    2    3    0
 -5  ALL         1    2    0    0    1ALL
 -1         1 0.00000E+00 0.00000E+00 0.00000E+00
 -1         2 0.00000E+00 0.00000E+00 0.00000E+00
 -1         3 0.00000E+00 0.00000E+00-1.41497E-05
 -1         4 0.00000E+00 0.00000E+00-1.41497E-05
 -1         5 0.00000E+00 0.00000E+00 0.00000E+00
 -1         6 0.00000E+00 0.00000E+00 0.00000E+00
 -1         7 0.00000E+00 0.00000E+00-1.41497E-05
 -1         8 0.00000E+00 0.00000E+00-1.41497E-05
 -1        17-4.83750E-10-1.22758E-06-1.01382E-04
 -1        18 1.57509E-10 2.11850E-05-6.57474E-05
 -1        19 4.83750E-10 1.22758E-06-2.93679E-05
 -1        20-1.22872E-06 3.71468E-10-1.01381E-04
 -1        21 2.11850E-05-1.24489E-10-6.57464E-05
 -1        22 1.22872E-06-3.71468E-10-2.93675E-05
 -1        23-6.14576E-07-6.13459E-07-1.09398E-04
 -1        25 6.14576E-07 6.13459E-07-2.54540E-05
 -1        26-6.14569E-07 6.14211E-07-1.09397E-04
 -1        28 6.14569E-07-6.14211E-07-2.54539E-05
 -1        29 1.22775E-06 3.17961E-10-1.01382E-04
 -1        30-2.11850E-05-1.16747E-10-6.57474E-05
 -1        31-1.22775E-06-3.17961E-10-2.93678E-05
 -1        32-5.42065E-10 1.22831E-06-1.01381E-04
 -1        33 1.65764E-10-2.11851E-05-6.57467E-05
 -1        34 5.42065E-10-1.22831E-06-2.93677E-05
 -1        35 6.13525E-07 6.14233E-07-1.09398E-04
 -1        37-6.13525E-07-6.14233E-07-2.54541E-05
 -1        38 6.13593E-07-6.13545E-07-1.09398E-04
 -1        40-6.13593E-07 6.13545E-07-2.54541E-05
 -3
    1PSTEP                         2           1           1          
  100CL  101 1.000000000          28                     0    1           1
 -4  STRESS      6    1
 -5  SXX         1    4    1    1
 -5  SYY         1    4    2    2
 -5  SZZ         1    4    3    3
 -5  SXY         1    4    1    2
 -5  SYZ         1    4    2    3
 -5  SZX         1    4    3    1
 -1         1-1.71423E+00-1.71423E+00-3.99976E+00 5.25336E-18 2.27129E-11-3.20105E-11
 -1         2-1.71423E+00-1.71423E+00-3.99976E+00 5.28462E-18 2.27129E-11-3.19708E-11
 -1         3-1.71423E+00-1.71423E+00-3.99976E+00-2.64210E-17-1.34971E-06 1.89709E-06
 -1         4-1.71423E+00-1.71423E+00-3.99976E+00-2.62647E-17-1.34971E-06 1.88587E-06
 -1         5-1.71424E+00-1.71424E+00-3.99977E+00 5.20968E-18 2.27526E-11-3.20105E-11
 -1         6-1.71423E+00-1.71423E+00-3.99977E+00 5.24068E-18 2.27526E-11-3.19708E-11
 -1         7-1.71423E+00-1.71423E+00-3.99977E+00-2.62013E-17-1.33848E-06 1.89709E-06
 -1         8-1.71424E+00-1.71424E+00-3.99977E+00-2.60463E-17-1.33848E-06 1.88587E-06
 -1        17-4.62345E+01-4.62160E+01-1.01718E+02 9.93678E-05-1.68741E+01-2.65971E-04
 -1        18 1.68981E+01 1.68991E+01-6.54271E+01 7.30254E-05 3.69351E+00-1.05105E-04
 -1        19-4.10262E+01-4.10048E+01-1.01718E+02-9.92211E-05 2.42562E+01-8.24313E-05
 -1        20-4.62159E+01-4.62336E+01-1.01718E+02-3.99879E-05 1.80471E-04-1.68747E+01
 -1        21 1.68989E+01 1.68983E+01-6.54265E+01-6.21334E-05 6.82946E-05 3.69321E+00
 -1        22-4.10042E+01-4.10263E+01-1.01715E+02 3.98733E-05 4.97578E-05 2.42556E+01
 -1        23-5.34598E+01-5.34593E+01-1.18571E+02 1.83731E-03-8.43470E+00-8.43533E+00
 -1        25-4.82485E+01-4.82490E+01-1.18567E+02 2.09985E-03 1.21255E+01 1.21251E+01
 -1        26-5.34596E+01-5.34592E+01-1.18571E+02-1.83700E-03 8.43496E+00-8.43529E+00
 -1        28-4.82482E+01-4.82486E+01-1.18566E+02-2.10023E-03-1.21253E+01 1.21251E+01
 -1        29-4.62163E+01-4.62342E+01-1.01719E+02 9.50754E-05 1.88708E-04 1.68744E+01
 -1        30 1.68989E+01 1.68979E+01-6.54277E+01 5.29893E-05 6.36556E-05-3.69344E+00
 -1        31-4.10049E+01-4.10270E+01-1.01718E+02-9.49626E-05 3.22609E-05-2.42561E+01
 -1        32-4.62341E+01-4.62157E+01-1.01717E+02-2.67513E-05 1.68742E+01-2.62439E-04
 -1        33 1.68984E+01 1.68992E+01-6.54262E+01-8.21695E-05-3.69334E+00-1.13622E-04
 -1        34-4.10256E+01-4.10041E+01-1.01716E+02 2.66000E-05-2.42558E+01-1.02977E-04
 -1        35-5.34598E+01-5.34595E+01-1.18571E+02 1.84180E-03 8.43503E+00 8.43491E+00
 -1        37-4.82487E+01-4.82490E+01-1.18568E+02 2.09533E-03-1.21253E+01-1.21254E+01
 -1        38-5.34600E+01-5.34596E+01-1.18571E+02-1.70648E-03-8.43477E+00 8.43495E+00
 -1        40-4.82489E+01-4.82493E+01-1.18569E+02-2.23059E-03 1.21255E+01-1.21254E+01
 -3
 9999
