
 displacements (vx,vy,vz) for set NALL and time  0.9125000E-03

         1  1.468533E-20  1.876287E-20  5.415085E-05
         2  2.656257E-20 -2.592133E-20  5.415085E-05
         3 -1.559487E-20  1.859445E-20  5.415085E-05
         4 -1.557289E-20 -1.138596E-20  5.415085E-05
         5  7.677730E-22 -5.999813E-21  5.415085E-05
         6 -2.509329E-20 -1.411312E-20  5.415085E-05
         7  2.513030E-20  3.602695E-20  5.415085E-05
         8 -4.708770E-22 -2.415000E-21  5.415085E-05
         9  2.068079E-20  1.655424E-21  5.415085E-05
        10 -1.782428E-21  1.756913E-21  5.415085E-05
        11 -1.562605E-20 -1.903559E-21  5.415085E-05
        12  4.070339E-22 -1.513944E-21  5.415085E-05
        13 -3.238626E-21  6.267405E-21  5.415085E-05
        14  1.513889E-21 -2.013099E-20  5.415085E-05
        15 -5.765574E-22  2.744231E-20  5.415085E-05
        16  3.433738E-21 -6.768839E-21  5.415085E-05
        17 -1.210583E-20  6.922993E-21  5.415085E-05
        18  3.581580E-21 -1.742631E-21  5.415085E-05
        19  1.228752E-20 -5.502060E-21  5.415085E-05
        20 -7.645088E-22  3.678763E-21  5.415085E-05
        21 -7.269666E-21 -1.173043E-20 -5.415085E-05
        22 -9.528529E-21  6.813590E-21 -5.415085E-05
        23 -5.679845E-21 -4.674129E-22 -5.415085E-05
        24  1.718060E-20  1.477781E-20 -5.415085E-05
        25  2.413163E-21  6.146267E-21 -5.415085E-05
        26  3.261136E-20  1.680718E-20 -5.415085E-05
        27 -3.005882E-20 -4.532536E-20 -5.415085E-05
        28  2.197449E-21  4.404883E-21 -5.415085E-05
        29 -8.351664E-21  2.768640E-21 -5.415085E-05
        30  1.162382E-21  8.263960E-22 -5.415085E-05
        31  5.702032E-21 -2.318090E-21 -5.415085E-05
        32 -2.318134E-22  1.081424E-21 -5.415085E-05
        33  3.428309E-21 -2.712411E-21 -5.415085E-05
        34 -6.970815E-21  1.189009E-20 -5.415085E-05
        35  6.162688E-21 -2.298613E-20 -5.415085E-05
        36 -2.543169E-21  9.501746E-21 -5.415085E-05
        37  1.755957E-20 -7.665117E-21 -5.415085E-05
        38 -3.517293E-21  3.847763E-21 -5.415085E-05
        39 -1.397890E-20  6.330838E-21 -5.415085E-05
        40  2.977953E-21 -6.995262E-21 -5.415085E-05

 displacements (vx,vy,vz) for set NALL and time  0.7588672E-02

         1  1.428808E-18  2.406826E-19  3.750349E-03
         2  3.337977E-18  5.761744E-19  3.750349E-03
         3 -4.181609E-18  4.898956E-18  3.750349E-03
         4 -1.434053E-18 -4.696176E-18  3.750349E-03
         5  2.386861E-19  1.730676E-18  3.750349E-03
         6 -3.127321E-18 -2.299635E-19  3.750349E-03
         7  2.676615E-18  5.579417E-18  3.750349E-03
         8  1.250168E-18 -4.987777E-18  3.750349E-03
         9  2.394776E-18  5.843762E-19  3.750349E-03
        10 -3.240032E-19 -1.254485E-18  3.750349E-03
        11 -2.733526E-18 -1.291526E-19  3.750349E-03
        12 -9.033980E-20  8.886374E-19  3.750349E-03
        13  8.692607E-19  4.133561E-19  3.750349E-03
        14 -1.620569E-19 -3.992744E-19  3.750349E-03
        15 -4.137551E-19  5.977117E-18  3.750349E-03
        16 -1.310857E-19 -4.104130E-18  3.750349E-03
        17 -1.432904E-18  6.234349E-19  3.750349E-03
        18  4.905591E-19 -1.093134E-18  3.750349E-03
        19  2.037629E-18  4.432026E-19  3.750349E-03
        20 -3.626165E-19  3.840437E-19  3.750349E-03
        21 -1.344272E-18  2.412229E-18 -3.750349E-03
        22 -2.017996E-18 -2.375000E-18 -3.750349E-03
        23  1.530456E-18 -5.677867E-18 -3.750349E-03
        24  9.130567E-19  4.716710E-18 -3.750349E-03
        25  2.023878E-18  2.469113E-19 -3.750349E-03
        26  3.414339E-18  1.175126E-18 -3.750349E-03
        27 -2.073282E-18 -5.058388E-18 -3.750349E-03
        28 -1.958530E-18  3.072974E-18 -3.750349E-03
        29 -1.268264E-18 -2.794787E-20 -3.750349E-03
        30 -9.319403E-21  2.149938E-18 -3.750349E-03
        31  9.291677E-19 -5.014866E-19 -3.750349E-03
        32 -2.607626E-19 -1.733489E-18 -3.750349E-03
        33  4.463057E-19  1.482553E-18 -3.750349E-03
        34  9.938019E-19 -4.467921E-19 -3.750349E-03
        35 -5.384791E-19 -5.639289E-18 -3.750349E-03
        36 -4.827432E-19  3.623865E-18 -3.750349E-03
        37  3.131867E-18  8.535260E-19 -3.750349E-03
        38 -3.529929E-19  1.370537E-18 -3.750349E-03
        39 -2.308247E-18 -1.320651E-18 -3.750349E-03
        40  8.538880E-20 -9.262346E-19 -3.750349E-03

 displacements (vx,vy,vz) for set NALL and time  0.1000000E-01

         1  9.135122E-19 -6.059842E-18  6.518635E-03
         2  2.142060E-18  5.360860E-18  6.518635E-03
         3 -1.094351E-18  5.508401E-18  6.518635E-03
         4 -4.469061E-19 -5.885688E-18  6.518635E-03
         5  2.288457E-18  5.110557E-22  6.518635E-03
         6 -1.434989E-18  1.640455E-18  6.518635E-03
         7 -8.123187E-19  6.213415E-18  6.518635E-03
         8 -8.925966E-19 -4.478374E-18  6.518635E-03
         9  1.046128E-18 -3.687472E-19  6.518635E-03
        10 -7.461024E-19 -2.561297E-18  6.518635E-03
        11 -2.209390E-19 -9.555329E-20  6.518635E-03
        12 -3.441506E-19  2.583567E-18  6.518635E-03
        13  1.515696E-18 -3.637858E-18  6.518635E-03
        14  1.720913E-19  2.892304E-18  6.518635E-03
        15 -9.080606E-19  6.642323E-18  6.518635E-03
        16 -6.028571E-19 -4.400927E-18  6.518635E-03
        17 -5.477395E-20  7.050672E-19  6.518635E-03
        18  1.114208E-18 -1.586603E-18  6.518635E-03
        19 -3.030441E-19  9.390590E-19  6.518635E-03
        20 -1.710711E-19  6.134648E-19  6.518635E-03
        21  3.804934E-18  9.122825E-18 -6.518635E-03
        22 -6.985447E-19 -5.720810E-18 -6.518635E-03
        23 -1.456391E-18 -7.975896E-18 -6.518635E-03
        24 -1.778253E-18  6.277354E-18 -6.518635E-03
        25  1.163384E-18  4.273300E-18 -6.518635E-03
        26  2.997819E-18 -2.055681E-18 -6.518635E-03
        27 -1.306978E-18 -6.791014E-18 -6.518635E-03
        28 -2.427757E-18  1.003463E-18 -6.518635E-03
        29  1.805553E-18  1.582787E-18 -6.518635E-03
        30  6.224855E-19  3.377222E-18 -6.518635E-03
        31 -1.820499E-18 -7.621373E-19 -6.518635E-03
        32 -4.506125E-19 -3.676648E-18 -6.518635E-03
        33  2.195435E-18  6.951994E-18 -6.518635E-03
        34  1.414639E-18 -3.633680E-18 -6.518635E-03
        35 -1.337099E-18 -7.733469E-18 -6.518635E-03
        36 -2.096029E-18  3.291159E-18 -6.518635E-03
        37  2.332362E-18  1.544278E-18 -6.518635E-03
        38 -8.653937E-19  1.886644E-18 -6.518635E-03
        39 -2.069724E-18 -2.769016E-18 -6.518635E-03
        40  4.925285E-19 -1.458962E-18 -6.518635E-03
