
 displacements (vx,vy,vz) for set MIDBOT and time  0.1000000E+01

         2  1.259921E-06 -2.249926E-06  0.000000E+00
         4  1.079911E-06 -2.249942E-06  0.000000E+00
         6  8.999344E-07 -2.249980E-06  0.000000E+00
         8  7.199564E-07 -2.249993E-06  0.000000E+00
        10  5.399715E-07 -2.249996E-06  0.000000E+00
        12  3.599829E-07 -2.249997E-06  0.000000E+00
        14  1.799920E-07 -2.249997E-06  0.000000E+00
        16 -3.385257E-16 -2.249997E-06  0.000000E+00
        18 -1.799920E-07 -2.249997E-06  0.000000E+00
        20 -3.599829E-07 -2.249997E-06  0.000000E+00
        22 -5.399715E-07 -2.249996E-06  0.000000E+00
        24 -7.199564E-07 -2.249993E-06  0.000000E+00
        26 -8.999344E-07 -2.249980E-06  0.000000E+00
        28 -1.079911E-06 -2.249942E-06  0.000000E+00
        30 -1.259921E-06 -2.249926E-06  0.000000E+00

 displacements (vx,vy,vz) for set END_BOT and time  0.1000000E+01

         1  1.349920E-06 -2.249931E-06  3.126743E-22
         3  1.169914E-06 -2.249919E-06  1.654361E-24
         5  9.899220E-07 -2.249968E-06 -2.216844E-22
         7  8.099466E-07 -2.249988E-06  7.576974E-22
         9  6.299646E-07 -2.249995E-06  2.051408E-22
        11  4.499776E-07 -2.249997E-06 -1.091878E-22
        13  2.699877E-07 -2.249997E-06  5.955700E-23
        15  8.999606E-08 -2.249997E-06  2.249931E-22
        17 -8.999606E-08 -2.249997E-06 -5.475936E-22
        19 -2.699877E-07 -2.249997E-06  9.413315E-22
        21 -4.499776E-07 -2.249997E-06 -9.098987E-22
        23 -6.299646E-07 -2.249995E-06 -9.810362E-22
        25 -8.099466E-07 -2.249988E-06  1.935603E-22
        27 -9.899220E-07 -2.249968E-06 -8.073283E-22
        29 -1.169914E-06 -2.249919E-06  1.095187E-21
        31 -1.349920E-06 -2.249931E-06 -3.573420E-22

 stresses (elem, integ.pnt.,sxx,syy,szz,sxy,sxz,syz) for set PLATE and time  0.1000000E+01

         1   1  7.760591E-05  8.999968E+00 -6.931137E-05 -1.147534E-05 -2.425481E-05  1.714970E-05
         1   2 -2.735661E-06  8.999996E+00  8.403586E-05  1.099730E-05 -5.663847E-05  1.438265E-05
         1   3  5.340612E-05  9.000442E+00  2.748146E-04  6.167150E-05 -8.902214E-05 -3.134601E-05
         1   4  3.229295E-07  8.999947E+00 -6.816545E-05  3.310595E-05 -6.159632E-05  8.907803E-05
         1   5 -6.582757E-05  8.999960E+00  2.555789E-05  4.840023E-05  2.617799E-05 -5.785931E-05
         1   6  4.746689E-05  9.000434E+00  2.569564E-04  9.189606E-05  1.139523E-04 -2.477583E-04
         1   7 -2.005900E-04  8.999879E+00 -9.737010E-05  7.737005E-05 -9.100821E-05  1.610064E-04
         1   8 -2.684087E-04  8.999861E+00 -1.002756E-04  8.548596E-05  1.169241E-04 -1.301013E-04
         1   9 -1.138208E-04  9.000347E+00  1.347379E-04  1.218034E-04  3.248564E-04 -4.641705E-04
         1  10  8.063764E-05  9.000149E+00 -1.413355E-05 -7.125836E-05 -3.575494E-14  4.926497E-14
         1  11 -1.797372E-04  8.999757E+00 -4.081955E-05  5.744337E-05 -2.189143E-14  8.112697E-16
         1  12 -3.036286E-04  8.999783E+00 -3.007408E-05  2.143466E-04  1.255102E-14 -3.661440E-14
         1  13  1.892556E-04  9.000207E+00  6.668419E-05 -8.668815E-05 -1.448998E-14  4.636634E-14
         1  14 -5.692817E-05  8.999800E+00 -1.962571E-05  3.483522E-05 -9.609993E-15 -8.509779E-15
         1  15 -1.236669E-04  8.999854E+00  3.173961E-05  1.845601E-04  8.504881E-15 -3.191612E-14
         1  16  1.742435E-04  9.000220E+00  1.171513E-04 -1.024351E-04 -2.563271E-14  4.336017E-14
         1  17 -7.360837E-05  8.999782E+00 -6.578739E-05  1.190987E-05 -1.536555E-14 -1.160344E-14
         1  18 -9.905372E-05  8.999847E+00 -1.080716E-05  1.544564E-04 -1.641097E-15 -2.226106E-14
         1  19  7.760591E-05  8.999968E+00 -6.931137E-05 -1.147534E-05  2.425481E-05 -1.714970E-05
         1  20 -2.735661E-06  8.999996E+00  8.403586E-05  1.099730E-05  5.663847E-05 -1.438265E-05
         1  21  5.340612E-05  9.000442E+00  2.748146E-04  6.167150E-05  8.902214E-05  3.134601E-05
         1  22  3.229294E-07  8.999947E+00 -6.816545E-05  3.310595E-05  6.159632E-05 -8.907803E-05
         1  23 -6.582757E-05  8.999960E+00  2.555789E-05  4.840023E-05 -2.617799E-05  5.785931E-05
         1  24  4.746689E-05  9.000434E+00  2.569564E-04  9.189606E-05 -1.139523E-04  2.477583E-04
         1  25 -2.005900E-04  8.999879E+00 -9.737010E-05  7.737005E-05  9.100821E-05 -1.610064E-04
         1  26 -2.684087E-04  8.999861E+00 -1.002756E-04  8.548596E-05 -1.169241E-04  1.301013E-04
         1  27 -1.138208E-04  9.000347E+00  1.347379E-04  1.218034E-04 -3.248564E-04  4.641705E-04
         2   1 -8.789372E-05  9.000347E+00  1.953690E-04 -2.191104E-04 -9.916313E-05 -3.898143E-05
         2   2  1.123305E-04  8.999930E+00  7.157793E-05 -5.380493E-05 -1.008321E-05 -1.236248E-05
         2   3  4.877130E-04  9.000009E+00  3.591700E-05 -6.800994E-05  7.899670E-05 -1.766041E-05
         2   4  4.090807E-04  9.000550E+00  3.984666E-04 -4.320041E-04  1.335278E-04 -2.605253E-04
         2   5  2.834236E-04  8.999976E+00  1.239368E-04 -1.455641E-04  8.213522E-05 -1.073709E-04
         2   6  3.648416E-04  8.999929E+00  1.200994E-05 -3.863446E-05  3.074261E-05  1.386661E-05
         2   7  9.571080E-04  9.000764E+00  5.840490E-04 -6.477186E-04  3.597437E-04 -4.820692E-04
         2   8  5.185199E-04  9.000045E+00  1.889979E-04 -2.401439E-04  1.678785E-04 -2.023793E-04
         2   9  3.189238E-04  8.999885E+00  3.102242E-05 -1.207971E-05 -2.398662E-05  4.539363E-05
         2  10 -2.863149E-04  8.999743E+00 -4.538554E-05 -4.547952E-05  1.240897E-14 -3.419385E-14
         2  11  7.083078E-05  8.999692E+00 -1.225513E-05  2.644034E-05 -1.951271E-14 -9.561879E-15
         2  12  6.031347E-04  9.000137E+00  1.090054E-04 -8.115023E-05 -2.498773E-14 -1.337756E-14
         2  13  4.723473E-05  8.999876E+00  8.767287E-05 -2.060661E-04  1.400983E-14 -2.772618E-14
         2  14  7.849914E-05  8.999668E+00 -2.993541E-05 -1.301164E-05 -3.426092E-15 -1.058573E-14
         2  15  3.168386E-04  8.999987E+00  1.505916E-05  5.324009E-07 -1.663189E-15 -8.896864E-15
         2  16  4.318373E-04  9.000020E+00  2.032162E-04 -3.694734E-04  5.668791E-15 -1.464693E-14
         2  17  1.501707E-04  8.999667E+00 -3.491347E-05 -5.528435E-05  8.323250E-15  2.173059E-16
         2  18  1.074960E-04  8.999874E+00 -3.596753E-05  7.939430E-05  1.078823E-14  7.567793E-15
         2  19 -8.789372E-05  9.000347E+00  1.953690E-04 -2.191104E-04  9.916313E-05  3.898143E-05
         2  20  1.123305E-04  8.999930E+00  7.157793E-05 -5.380493E-05  1.008321E-05  1.236248E-05
         2  21  4.877130E-04  9.000009E+00  3.591700E-05 -6.800994E-05 -7.899670E-05  1.766041E-05
         2  22  4.090807E-04  9.000550E+00  3.984666E-04 -4.320041E-04 -1.335278E-04  2.605253E-04
         2  23  2.834236E-04  8.999976E+00  1.239368E-04 -1.455641E-04 -8.213522E-05  1.073709E-04
         2  24  3.648416E-04  8.999929E+00  1.200994E-05 -3.863446E-05 -3.074261E-05 -1.386661E-05
         2  25  9.571080E-04  9.000764E+00  5.840490E-04 -6.477186E-04 -3.597437E-04  4.820692E-04
         2  26  5.185199E-04  9.000045E+00  1.889979E-04 -2.401439E-04 -1.678785E-04  2.023793E-04
         2  27  3.189238E-04  8.999885E+00  3.102242E-05 -1.207971E-05  2.398662E-05 -4.539363E-05
         3   1  3.659942E-04  9.000005E+00 -5.787446E-05  3.030829E-05  1.081606E-05 -1.669286E-05
         3   2  3.486768E-04  8.999991E+00 -2.324756E-05  1.539807E-05  7.483606E-07  2.394794E-06
         3   3  3.412100E-04  9.000010E+00  1.093758E-05  7.095839E-06 -9.319343E-06  5.777447E-06
         3   4  2.752263E-04  8.999946E+00 -5.571837E-05  3.371689E-05 -2.949259E-05  4.197060E-05
         3   5  2.655176E-04  8.999953E+00 -4.519757E-05  2.636458E-05 -1.807458E-05  2.777694E-05
         3   6  2.813647E-04  9.000008E+00  1.526456E-06  2.562025E-05 -6.656564E-06 -2.121721E-06
         3   7  1.950012E-04  8.999895E+00 -3.463284E-05  4.208384E-05 -6.735981E-05  1.006341E-04
         3   8  1.880185E-04  8.999918E+00 -5.961150E-05  4.228943E-05 -3.445608E-05  5.315908E-05
         3   9  2.222965E-04  9.000006E+00 -1.174195E-05  4.910301E-05 -1.552351E-06 -1.002089E-05
         3  10  4.222224E-04  9.000171E+00  8.799302E-06 -8.917133E-06 -1.144021E-14 -1.856472E-14
         3  11  3.619703E-04  9.000057E+00  4.914997E-07 -1.823691E-06 -4.076415E-15 -1.673582E-14
         3  12  3.115688E-04  8.999976E+00 -8.258072E-06  1.187774E-05  7.119876E-15  2.404181E-14
         3  13  3.699609E-04  9.000128E+00  2.745813E-05 -1.982010E-05 -5.382182E-15 -1.555849E-14
         3  14  3.173175E-04  9.000035E+00 -4.955769E-06 -5.168755E-06 -6.708654E-15 -1.949025E-14
         3  15  2.902299E-04  8.999991E+00 -1.166448E-06  1.609058E-05  8.370287E-16  2.036644E-14
         3  16  3.282422E-04  9.000094E+00  6.504641E-05 -2.576472E-05 -1.595317E-15  5.665334E-15
         3  17  2.783248E-04  9.000017E+00 -2.866956E-06 -3.555466E-06 -1.595682E-14 -1.051865E-15
         3  18  2.696681E-04  9.000004E+00  2.067896E-06  2.526177E-05 -3.867825E-15  1.828838E-14
         3  19  3.659942E-04  9.000005E+00 -5.787446E-05  3.030829E-05 -1.081606E-05  1.669286E-05
         3  20  3.486768E-04  8.999991E+00 -2.324756E-05  1.539807E-05 -7.483606E-07 -2.394794E-06
         3  21  3.412100E-04  9.000010E+00  1.093758E-05  7.095839E-06  9.319343E-06 -5.777447E-06
         3  22  2.752263E-04  8.999946E+00 -5.571837E-05  3.371689E-05  2.949259E-05 -4.197060E-05
         3  23  2.655176E-04  8.999953E+00 -4.519757E-05  2.636458E-05  1.807458E-05 -2.777694E-05
         3  24  2.813647E-04  9.000008E+00  1.526456E-06  2.562025E-05  6.656564E-06  2.121721E-06
         3  25  1.950012E-04  8.999895E+00 -3.463284E-05  4.208384E-05  6.735981E-05 -1.006341E-04
         3  26  1.880185E-04  8.999918E+00 -5.961150E-05  4.228943E-05  3.445608E-05 -5.315908E-05
         3  27  2.222965E-04  9.000006E+00 -1.174195E-05  4.910301E-05  1.552351E-06  1.002089E-05
         4   1  2.963672E-04  9.000005E+00  6.006597E-06  6.314107E-06 -8.498551E-06  3.205295E-06
         4   2  2.622211E-04  9.000001E+00  3.865539E-06  3.048608E-06 -2.805417E-06  1.022372E-06
         4   3  2.276065E-04  8.999998E+00 -1.931961E-06  6.145962E-06  2.887716E-06 -1.313339E-06
         4   4  2.749356E-04  9.000026E+00  1.738337E-05  1.752559E-05  4.089789E-06 -1.189751E-05
         4   5  2.444285E-04  9.000011E+00  9.995297E-06  1.433637E-05  2.971992E-06 -5.554350E-06
         4   6  2.136056E-04  8.999999E+00 -6.927162E-07  1.750999E-05  1.854194E-06  6.360212E-07
         4   7  2.494371E-04  9.000043E+00  2.115262E-05  2.686918E-05  1.574700E-05 -2.700031E-05
         4   8  2.244312E-04  9.000020E+00  1.286281E-05  2.375623E-05  7.818270E-06 -1.213107E-05
         4   9  1.992624E-04  8.999999E+00  1.629558E-06  2.700614E-05 -1.104584E-07  2.585381E-06
         4  10  2.818160E-04  8.999960E+00 -1.191790E-05  1.313968E-05 -3.736793E-15  1.725123E-14
         4  11  2.593568E-04  8.999983E+00 -2.372068E-06  4.823279E-06 -4.653804E-15 -2.345230E-14
         4  12  2.364291E-04  9.000007E+00  3.517318E-06  2.869730E-06 -4.329670E-15  3.821840E-14
         4  13  2.515453E-04  8.999977E+00 -4.329299E-06  2.824679E-05 -9.326661E-16  1.249223E-14
         4  14  2.327250E-04  8.999989E+00 -3.048755E-08  2.000667E-05 -3.537735E-15 -1.472563E-14
         4  15  2.135891E-04  9.000004E+00  9.683854E-07  1.812939E-05 -1.104849E-15  3.525572E-14
         4  16  2.172077E-04  8.999991E+00 -4.348228E-06  4.148601E-05  1.944055E-15  7.681399E-15
         4  17  2.038887E-04  8.999995E+00 -9.511557E-07  3.332216E-05 -4.661418E-15 -2.802786E-14
         4  18  1.904068E-04  9.000001E+00 -4.975181E-07  3.152116E-05 -2.502122E-15  4.722558E-15
         4  19  2.963672E-04  9.000005E+00  6.006597E-06  6.314106E-06  8.498551E-06 -3.205295E-06
         4  20  2.622211E-04  9.000001E+00  3.865539E-06  3.048608E-06  2.805417E-06 -1.022372E-06
         4  21  2.276065E-04  8.999998E+00 -1.931961E-06  6.145962E-06 -2.887716E-06  1.313339E-06
         4  22  2.749356E-04  9.000026E+00  1.738337E-05  1.752559E-05 -4.089789E-06  1.189751E-05
         4  23  2.444285E-04  9.000011E+00  9.995297E-06  1.433637E-05 -2.971992E-06  5.554350E-06
         4  24  2.136056E-04  8.999999E+00 -6.927163E-07  1.750999E-05 -1.854194E-06 -6.360211E-07
         4  25  2.494371E-04  9.000043E+00  2.115262E-05  2.686918E-05 -1.574700E-05  2.700031E-05
         4  26  2.244312E-04  9.000020E+00  1.286281E-05  2.375623E-05 -7.818270E-06  1.213107E-05
         4  27  1.992624E-04  8.999999E+00  1.629558E-06  2.700614E-05  1.104584E-07 -2.585381E-06
         5   1  2.132258E-04  8.999999E+00 -2.783536E-06  5.565046E-06  2.188575E-06 -1.554438E-06
         5   2  1.936491E-04  9.000000E+00 -4.273681E-07  3.300273E-06  6.481383E-07 -2.781258E-07
         5   3  1.734878E-04  9.000000E+00  5.933792E-07  3.344082E-06 -8.922983E-07  4.877512E-07
         5   4  1.977193E-04  8.999995E+00 -4.595537E-06  1.640462E-05 -5.658089E-07  2.240259E-06
         5   5  1.819099E-04  8.999999E+00 -1.937649E-06  1.265282E-05 -6.125144E-07  1.331975E-06
         5   6  1.660264E-04  9.000002E+00  5.758337E-07  1.120961E-05 -6.592200E-07 -8.674376E-08
         5   7  1.806651E-04  8.999992E+00 -5.085829E-06  2.744256E-05 -3.070380E-06  6.034955E-06
         5   8  1.681234E-04  8.999997E+00 -3.292017E-06  2.220374E-05 -1.623354E-06  2.942076E-06
         5   9  1.560181E-04  9.000002E+00 -4.515937E-07  1.927351E-05 -1.763286E-07 -6.612387E-07
         5  10  2.162758E-04  9.000010E+00  1.633005E-06  3.325009E-06 -7.091581E-15  4.949191E-14
         5  11  1.936793E-04  9.000004E+00  9.694237E-07  2.371948E-06 -1.846399E-14 -1.877875E-14
         5  12  1.704983E-04  8.999998E+00 -1.029579E-06  3.727469E-06 -1.662921E-14 -2.353995E-14
         5  13  2.030648E-04  9.000008E+00  8.047888E-07  1.315800E-05  1.175707E-15  4.452680E-14
         5  14  1.842357E-04  9.000004E+00  4.429266E-07  1.071791E-05 -3.657110E-15 -9.265537E-15
         5  15  1.653325E-04  9.000000E+00 -6.334075E-08  1.058641E-05 -3.434060E-15 -2.303879E-14
         5  16  1.883061E-04  9.000005E+00  1.298280E-06  2.318936E-05  3.447615E-15  8.769177E-15
         5  17  1.727447E-04  9.000003E+00  7.234223E-08  1.926225E-05  8.882119E-16 -3.129526E-14
         5  18  1.576196E-04  9.000002E+00 -1.069844E-07  1.764373E-05 -1.276656E-15 -1.750933E-14
         5  19  2.132258E-04  8.999999E+00 -2.783536E-06  5.565046E-06 -2.188575E-06  1.554438E-06
         5  20  1.936491E-04  9.000000E+00 -4.273680E-07  3.300273E-06 -6.481383E-07  2.781258E-07
         5  21  1.734878E-04  9.000000E+00  5.933792E-07  3.344083E-06  8.922983E-07 -4.877513E-07
         5  22  1.977193E-04  8.999995E+00 -4.595537E-06  1.640462E-05  5.658089E-07 -2.240258E-06
         5  23  1.819099E-04  8.999999E+00 -1.937649E-06  1.265282E-05  6.125144E-07 -1.331975E-06
         5  24  1.660264E-04  9.000002E+00  5.758337E-07  1.120961E-05  6.592200E-07  8.674372E-08
         5  25  1.806651E-04  8.999992E+00 -5.085829E-06  2.744256E-05  3.070380E-06 -6.034955E-06
         5  26  1.681234E-04  8.999997E+00 -3.292017E-06  2.220374E-05  1.623354E-06 -2.942076E-06
         5  27  1.560181E-04  9.000002E+00 -4.515936E-07  1.927351E-05  1.763286E-07  6.612387E-07
         6   1  1.620486E-04  9.000000E+00 -1.413260E-08  3.076069E-06 -6.322297E-07  5.270387E-07
         6   2  1.495038E-04  9.000000E+00  1.089359E-07  1.748652E-06 -3.268684E-07  2.341919E-07
         6   3  1.365661E-04  9.000000E+00 -4.001801E-07  1.811658E-06 -2.150707E-08 -4.543327E-08
         6   4  1.574362E-04  9.000002E+00  9.975852E-07  9.643548E-06  9.726289E-08 -5.203143E-07
         6   5  1.463448E-04  9.000002E+00  7.813817E-07  7.228213E-06  3.471665E-08 -2.535377E-07
         6   6  1.348473E-04  9.000001E+00 -9.785685E-08  6.203301E-06 -2.782959E-08  2.646043E-08
         6   7  1.509754E-04  9.000004E+00  1.085577E-06  1.598496E-05  7.692732E-07 -1.567667E-06
         6   8  1.414523E-04  9.000003E+00  7.983520E-07  1.248171E-05  3.388194E-07 -7.412674E-07
         6   9  1.315099E-04  9.000001E+00 -1.827586E-07  1.036888E-05 -9.163435E-08  9.835413E-08
         6  10  1.610756E-04  8.999997E+00 -1.148809E-06  3.268043E-06 -4.647128E-15 -3.901872E-15
         6  11  1.492897E-04  8.999999E+00 -2.668290E-07  1.659736E-06  8.905075E-15  6.976871E-15
         6  12  1.371109E-04  9.000000E+00 -1.703359E-08  1.441854E-06  1.353134E-14 -4.159214E-14
         6  13  1.559717E-04  8.999999E+00 -3.477575E-07  1.008849E-05  3.562036E-15 -9.447481E-15
         6  14  1.456391E-04  9.000001E+00  1.949503E-07  7.392268E-06  1.272465E-14 -8.582301E-15
         6  15  1.349005E-04  9.000001E+00  7.462308E-08  6.086468E-06  1.452871E-14 -2.691436E-14
         6  16  1.490193E-04  9.000001E+00 -4.704323E-07  1.668288E-05  2.016496E-15 -1.102835E-14
         6  17  1.402551E-04  9.000001E+00  1.253970E-09  1.289873E-05  1.363972E-14 -1.857092E-14
         6  18  1.310716E-04  9.000001E+00 -2.209452E-07  1.050502E-05  2.027881E-14 -6.953795E-15
         6  19  1.620486E-04  9.000000E+00 -1.413256E-08  3.076069E-06  6.322297E-07 -5.270387E-07
         6  20  1.495038E-04  9.000000E+00  1.089359E-07  1.748652E-06  3.268684E-07 -2.341919E-07
         6  21  1.365661E-04  9.000000E+00 -4.001801E-07  1.811658E-06  2.150710E-08  4.543316E-08
         6  22  1.574362E-04  9.000002E+00  9.975853E-07  9.643548E-06 -9.726288E-08  5.203142E-07
         6  23  1.463448E-04  9.000002E+00  7.813817E-07  7.228213E-06 -3.471663E-08  2.535377E-07
         6  24  1.348473E-04  9.000001E+00 -9.785681E-08  6.203301E-06  2.782960E-08 -2.646049E-08
         6  25  1.509754E-04  9.000004E+00  1.085577E-06  1.598496E-05 -7.692732E-07  1.567667E-06
         6  26  1.414523E-04  9.000003E+00  7.983520E-07  1.248171E-05 -3.388194E-07  7.412674E-07
         6  27  1.315099E-04  9.000001E+00 -1.827585E-07  1.036888E-05  9.163439E-08 -9.835413E-08
         7   1  1.314157E-04  9.000000E+00 -3.444372E-07  1.590125E-06  2.907789E-07 -8.416779E-08
         7   2  1.259058E-04  9.000000E+00  5.208580E-08  8.257772E-07  5.072247E-08  1.975322E-08
         7   3  1.200616E-04  9.000000E+00 -1.327514E-07  5.540294E-07 -1.893340E-07  7.091058E-08
         7   4  1.300716E-04  9.000000E+00 -2.761529E-07  5.217337E-06  1.308493E-07  1.126915E-07
         7   5  1.252339E-04  9.000001E+00  1.207150E-07  3.453415E-06 -1.274574E-08  8.643252E-08
         7   6  1.201145E-04  9.000001E+00  5.933779E-08  2.182094E-06 -1.563408E-07  7.409954E-09
         7   7  1.272499E-04  9.000000E+00 -4.893047E-07  8.826030E-06 -1.255121E-08  3.095509E-07
         7   8  1.230512E-04  9.000001E+00 -1.692278E-07  6.062534E-06 -5.968485E-08  1.531118E-07
         7   9  1.186237E-04  9.000001E+00 -1.842809E-07  3.791639E-06 -1.068185E-07 -5.609074E-08
         7  10  1.314083E-04  9.000000E+00 -1.023163E-07  1.404670E-06  7.816072E-15 -5.501418E-14
         7  11  1.257148E-04  9.000000E+00  1.105638E-07  7.324549E-07  7.789908E-17 -3.153217E-14
         7  12  1.196870E-04  9.000000E+00 -2.579163E-07  5.528395E-07  4.386076E-15  3.919580E-15
         7  13  1.302255E-04  9.000001E+00  3.506735E-08  4.970668E-06  3.683483E-15 -3.714421E-14
         7  14  1.252040E-04  9.000001E+00  2.482923E-07  3.298879E-06 -1.541464E-15 -2.990899E-14
         7  15  1.199011E-04  9.000001E+00  3.272103E-09  2.119689E-06 -3.273256E-16  4.621924E-15
         7  16  1.275650E-04  9.000001E+00 -1.089853E-07  8.518147E-06  8.534694E-15 -1.754926E-14
         7  17  1.231826E-04  9.000001E+00  2.744874E-08  5.846783E-06 -5.388901E-15 -3.651498E-14
         7  18  1.185714E-04  9.000001E+00 -1.712473E-07  3.668020E-06 -6.796240E-15 -1.718132E-14
         7  19  1.314157E-04  9.000000E+00 -3.444371E-07  1.590125E-06 -2.907789E-07  8.416767E-08
         7  20  1.259058E-04  9.000000E+00  5.208587E-08  8.257772E-07 -5.072248E-08 -1.975328E-08
         7  21  1.200616E-04  9.000000E+00 -1.327513E-07  5.540295E-07  1.893340E-07 -7.091058E-08
         7  22  1.300716E-04  9.000000E+00 -2.761528E-07  5.217337E-06 -1.308493E-07 -1.126916E-07
         7  23  1.252339E-04  9.000001E+00  1.207150E-07  3.453415E-06  1.274573E-08 -8.643259E-08
         7  24  1.201145E-04  9.000001E+00  5.933778E-08  2.182094E-06  1.563408E-07 -7.409914E-09
         7  25  1.272499E-04  9.000000E+00 -4.893048E-07  8.826030E-06  1.255123E-08 -3.095509E-07
         7  26  1.230512E-04  9.000001E+00 -1.692278E-07  6.062534E-06  5.968486E-08 -1.531119E-07
         7  27  1.186237E-04  9.000001E+00 -1.842809E-07  3.791639E-06  1.068185E-07  5.609071E-08
         8   1  1.182793E-04  9.000000E+00 -1.941952E-07  4.797687E-07  4.616153E-08  8.104496E-08
         8   2  1.184227E-04  9.000000E+00  3.175342E-08  3.644685E-14  4.566668E-15  8.878302E-08
         8   3  1.182793E-04  9.000000E+00 -1.941952E-07 -4.797686E-07 -4.616153E-08  8.104482E-08
         8   4  1.185635E-04  9.000001E+00  5.159068E-08  1.371728E-06  8.575410E-08 -2.033736E-08
         8   5  1.186991E-04  9.000001E+00  2.594836E-07  4.993626E-14  9.572695E-15 -1.259926E-08
         8   6  1.185635E-04  9.000001E+00  5.159058E-08 -1.371728E-06 -8.575408E-08 -2.033748E-08
         8   7  1.174908E-04  9.000001E+00 -7.655480E-08  2.263688E-06  1.253467E-07 -1.217197E-07
         8   8  1.176187E-04  9.000001E+00  1.132824E-07  3.771944E-14  9.517014E-15 -1.139816E-07
         8   9  1.174908E-04  9.000001E+00 -7.655490E-08 -2.263688E-06 -1.253466E-07 -1.217198E-07
         8  10  1.181460E-04  9.000000E+00 -2.464353E-07  5.036595E-07 -2.388967E-15  2.995439E-15
         8  11  1.182894E-04  9.000000E+00 -2.048663E-08 -1.588187E-14 -7.086968E-15 -2.292907E-14
         8  12  1.181460E-04  9.000000E+00 -2.464352E-07 -5.036594E-07 -9.412027E-15  1.242834E-15
         8  13  1.183884E-04  9.000001E+00 -1.856755E-08  1.395619E-06  2.367776E-15  8.852198E-15
         8  14  1.185241E-04  9.000001E+00  1.893254E-07  9.671650E-15 -2.537501E-16 -1.998240E-14
         8  15  1.183884E-04  9.000001E+00 -1.856756E-08 -1.395619E-06 -5.127753E-15  2.095443E-15
         8  16  1.172739E-04  9.000001E+00 -1.646311E-07  2.287578E-06  6.981516E-15 -1.390450E-14
         8  17  1.174018E-04  9.000001E+00  2.520610E-08  2.840411E-14  1.209515E-14 -1.844383E-14
         8  18  1.172739E-04  9.000001E+00 -1.646312E-07 -2.287578E-06  6.463153E-15  2.106760E-15
         8  19  1.182793E-04  9.000000E+00 -1.941952E-07  4.797687E-07 -4.616154E-08 -8.104494E-08
         8  20  1.184227E-04  9.000000E+00  3.175355E-08  2.053953E-14 -1.362812E-14 -8.878307E-08
         8  21  1.182793E-04  9.000000E+00 -1.941951E-07 -4.797686E-07  4.616151E-08 -8.104483E-08
         8  22  1.185635E-04  9.000001E+00  5.159068E-08  1.371728E-06 -8.575410E-08  2.033739E-08
         8  23  1.186991E-04  9.000001E+00  2.594836E-07  4.912180E-14 -1.604445E-14  1.259924E-08
         8  24  1.185635E-04  9.000001E+00  5.159064E-08 -1.371728E-06  8.575406E-08  2.033747E-08
         8  25  1.174908E-04  9.000001E+00 -7.655477E-08  2.263688E-06 -1.253467E-07  1.217197E-07
         8  26  1.176187E-04  9.000001E+00  1.132824E-07  5.670641E-14 -5.427751E-16  1.139815E-07
         8  27  1.174908E-04  9.000001E+00 -7.655487E-08 -2.263688E-06  1.253466E-07  1.217198E-07
         9   1  1.200616E-04  9.000000E+00 -1.327513E-07 -5.540294E-07  1.893340E-07  7.091047E-08
         9   2  1.259058E-04  9.000000E+00  5.208610E-08 -8.257773E-07 -5.072248E-08  1.975312E-08
         9   3  1.314157E-04  9.000000E+00 -3.444368E-07 -1.590125E-06 -2.907789E-07 -8.416775E-08
         9   4  1.201145E-04  9.000001E+00  5.933770E-08 -2.182094E-06  1.563408E-07  7.409782E-09
         9   5  1.252339E-04  9.000001E+00  1.207150E-07 -3.453415E-06  1.274574E-08  8.643241E-08
         9   6  1.300716E-04  9.000000E+00 -2.761529E-07 -5.217337E-06 -1.308493E-07  1.126915E-07
         9   7  1.186237E-04  9.000001E+00 -1.842809E-07 -3.791639E-06  1.068185E-07 -5.609090E-08
         9   8  1.230512E-04  9.000001E+00 -1.692279E-07 -6.062534E-06  5.968486E-08  1.531117E-07
         9   9  1.272499E-04  9.000000E+00 -4.893049E-07 -8.826030E-06  1.255123E-08  3.095508E-07
         9  10  1.196870E-04  9.000000E+00 -2.579161E-07 -5.528395E-07  8.058848E-15  9.454171E-15
         9  11  1.257148E-04  9.000000E+00  1.105641E-07 -7.324549E-07  1.489198E-14  4.119283E-15
         9  12  1.314083E-04  9.000000E+00 -1.023159E-07 -1.404670E-06  7.412093E-15  6.621341E-14
         9  13  1.199011E-04  9.000001E+00  3.272096E-09 -2.119690E-06 -3.427004E-16 -2.810690E-15
         9  14  1.252040E-04  9.000001E+00  2.482923E-07 -3.298879E-06  5.879588E-15 -1.161561E-14
         9  15  1.302255E-04  9.000001E+00  3.506742E-08 -4.970668E-06  5.096620E-15  6.034677E-14
         9  16  1.185714E-04  9.000001E+00 -1.712473E-07 -3.668020E-06 -1.548760E-15 -1.436863E-14
         9  17  1.231826E-04  9.000001E+00  2.744872E-08 -5.846783E-06 -1.669983E-15 -2.977667E-14
         9  18  1.275650E-04  9.000001E+00 -1.089853E-07 -8.518147E-06 -4.850365E-15  4.941385E-14
         9  19  1.200616E-04  9.000000E+00 -1.327512E-07 -5.540295E-07 -1.893339E-07 -7.091044E-08
         9  20  1.259058E-04  9.000000E+00  5.208596E-08 -8.257772E-07  5.072249E-08 -1.975312E-08
         9  21  1.314157E-04  9.000000E+00 -3.444370E-07 -1.590125E-06  2.907789E-07  8.416793E-08
         9  22  1.201145E-04  9.000001E+00  5.933772E-08 -2.182094E-06 -1.563408E-07 -7.409791E-09
         9  23  1.252339E-04  9.000001E+00  1.207149E-07 -3.453415E-06 -1.274574E-08 -8.643245E-08
         9  24  1.300716E-04  9.000000E+00 -2.761530E-07 -5.217337E-06  1.308493E-07 -1.126914E-07
         9  25  1.186237E-04  9.000001E+00 -1.842810E-07 -3.791639E-06 -1.068185E-07  5.609087E-08
         9  26  1.230512E-04  9.000001E+00 -1.692280E-07 -6.062534E-06 -5.968487E-08 -1.531118E-07
         9  27  1.272499E-04  9.000000E+00 -4.893049E-07 -8.826030E-06 -1.255123E-08 -3.095507E-07
        10   1  1.365661E-04  9.000000E+00 -4.001798E-07 -1.811658E-06  2.150707E-08 -4.543324E-08
        10   2  1.495038E-04  9.000000E+00  1.089360E-07 -1.748652E-06  3.268684E-07  2.341918E-07
        10   3  1.620486E-04  9.000000E+00 -1.413254E-08 -3.076069E-06  6.322297E-07  5.270387E-07
        10   4  1.348473E-04  9.000001E+00 -9.785693E-08 -6.203301E-06  2.782958E-08  2.646043E-08
        10   5  1.463448E-04  9.000002E+00  7.813815E-07 -7.228213E-06 -3.471666E-08 -2.535378E-07
        10   6  1.574362E-04  9.000002E+00  9.975851E-07 -9.643549E-06 -9.726290E-08 -5.203143E-07
        10   7  1.315099E-04  9.000001E+00 -1.827587E-07 -1.036888E-05  9.163435E-08  9.835409E-08
        10   8  1.414523E-04  9.000003E+00  7.983518E-07 -1.248171E-05 -3.388194E-07 -7.412674E-07
        10   9  1.509754E-04  9.000004E+00  1.085577E-06 -1.598496E-05 -7.692732E-07 -1.567667E-06
        10  10  1.371109E-04  9.000000E+00 -1.703332E-08 -1.441854E-06 -2.786991E-14  5.677910E-14
        10  11  1.492897E-04  8.999999E+00 -2.668287E-07 -1.659736E-06 -3.497831E-14 -2.302338E-14
        10  12  1.610756E-04  8.999997E+00 -1.148808E-06 -3.268043E-06 -2.424605E-14 -1.065777E-14
        10  13  1.349005E-04  9.000001E+00  7.462310E-08 -6.086468E-06 -8.432586E-15  5.408409E-14
        10  14  1.456391E-04  9.000001E+00  1.949503E-07 -7.392268E-06 -1.531661E-14 -2.211285E-14
        10  15  1.559717E-04  8.999999E+00 -3.477575E-07 -1.008849E-05 -1.112745E-14 -3.782016E-14
        10  16  1.310716E-04  9.000001E+00 -2.209452E-07 -1.050502E-05  5.072441E-16  6.370197E-14
        10  17  1.402551E-04  9.000001E+00  1.253982E-09 -1.289873E-05  2.746329E-15 -1.354961E-14
        10  18  1.490193E-04  9.000001E+00 -4.704324E-07 -1.668288E-05 -5.591368E-15 -3.789254E-14
        10  19  1.365661E-04  9.000000E+00 -4.001801E-07 -1.811658E-06 -2.150711E-08  4.543339E-08
        10  20  1.495038E-04  9.000000E+00  1.089360E-07 -1.748652E-06 -3.268684E-07 -2.341919E-07
        10  21  1.620486E-04  9.000000E+00 -1.413244E-08 -3.076069E-06 -6.322297E-07 -5.270387E-07
        10  22  1.348473E-04  9.000001E+00 -9.785700E-08 -6.203302E-06 -2.782959E-08 -2.646029E-08
        10  23  1.463448E-04  9.000002E+00  7.813816E-07 -7.228213E-06  3.471663E-08  2.535378E-07
        10  24  1.574362E-04  9.000002E+00  9.975851E-07 -9.643549E-06  9.726288E-08  5.203142E-07
        10  25  1.315099E-04  9.000001E+00 -1.827586E-07 -1.036888E-05 -9.163436E-08 -9.835398E-08
        10  26  1.414523E-04  9.000003E+00  7.983519E-07 -1.248171E-05  3.388194E-07  7.412674E-07
        10  27  1.509754E-04  9.000004E+00  1.085577E-06 -1.598496E-05  7.692732E-07  1.567667E-06
        11   1  1.734878E-04  9.000000E+00  5.933792E-07 -3.344082E-06  8.922983E-07  4.877512E-07
        11   2  1.936491E-04  9.000000E+00 -4.273681E-07 -3.300273E-06 -6.481383E-07 -2.781258E-07
        11   3  2.132258E-04  8.999999E+00 -2.783536E-06 -5.565046E-06 -2.188575E-06 -1.554438E-06
        11   4  1.660264E-04  9.000002E+00  5.758336E-07 -1.120961E-05  6.592200E-07 -8.674377E-08
        11   5  1.819099E-04  8.999999E+00 -1.937649E-06 -1.265282E-05  6.125144E-07  1.331975E-06
        11   6  1.977193E-04  8.999995E+00 -4.595536E-06 -1.640462E-05  5.658089E-07  2.240258E-06
        11   7  1.560181E-04  9.000002E+00 -4.515937E-07 -1.927351E-05  1.763286E-07 -6.612387E-07
        11   8  1.681234E-04  8.999997E+00 -3.292017E-06 -2.220374E-05  1.623354E-06  2.942076E-06
        11   9  1.806651E-04  8.999992E+00 -5.085829E-06 -2.744256E-05  3.070380E-06  6.034955E-06
        11  10  1.704983E-04  8.999998E+00 -1.029579E-06 -3.727469E-06 -6.807494E-15  1.158003E-14
        11  11  1.936793E-04  9.000004E+00  9.694238E-07 -2.371948E-06 -1.249295E-14 -1.230951E-15
        11  12  2.162758E-04  9.000010E+00  1.633005E-06 -3.325009E-06 -4.322244E-15 -5.877858E-14
        11  13  1.653325E-04  9.000000E+00 -6.334075E-08 -1.058641E-05 -8.207136E-15 -1.455602E-14
        11  14  1.842357E-04  9.000004E+00  4.429266E-07 -1.071791E-05 -1.389490E-14 -1.666040E-14