
 displacements (vx,vy,vz) for set N1 and time  0.5000000E-01

       235  9.220824E-19  1.387779E-17 -7.962774E-19
       506 -6.266302E-12 -4.841829E-02 -4.689835E-03

 displacements (vx,vy,vz) for set N1 and time  0.1000000E+00

       235 -1.476656E-19  0.000000E+00 -2.215774E-19
       506 -1.287473E-11 -9.687123E-02 -9.743142E-03

 displacements (vx,vy,vz) for set N1 and time  0.1500000E+00

       235 -3.175684E-20  0.000000E+00 -2.223479E-19
       506 -1.981616E-11 -1.453433E-01 -1.515972E-02

 displacements (vx,vy,vz) for set N1 and time  0.2000000E+00

       235 -5.306877E-20  0.000000E+00 -1.740461E-19
       506 -2.709357E-11 -1.938251E-01 -2.093984E-02

 displacements (vx,vy,vz) for set N1 and time  0.2500000E+00

       235 -3.064091E-21  0.000000E+00 -1.546858E-19
       506 -3.470662E-11 -2.423059E-01 -2.708332E-02

 displacements (vx,vy,vz) for set N1 and time  0.3000000E+00

       235 -2.995494E-20  0.000000E+00 -2.343074E-20
       506 -4.265479E-11 -2.907746E-01 -3.358973E-02

 displacements (vx,vy,vz) for set N1 and time  0.3500000E+00

       235 -9.804221E-20  0.000000E+00 -1.141079E-19
       506 -5.093741E-11 -3.392202E-01 -4.045833E-02

 displacements (vx,vy,vz) for set N1 and time  0.4000000E+00

       235 -2.517227E-20  0.000000E+00 -6.374888E-20
       506 -5.955274E-11 -3.876318E-01 -4.768811E-02

 displacements (vx,vy,vz) for set N1 and time  0.4500000E+00

       235 -6.390169E-21  0.000000E+00 -4.860059E-20
       506 -6.849974E-11 -4.359983E-01 -5.527781E-02

 displacements (vx,vy,vz) for set N1 and time  0.5000000E+00

       235 -1.905013E-19  0.000000E+00 -3.981417E-20
       506 -7.777615E-11 -4.843088E-01 -6.322587E-02

 displacements (vx,vy,vz) for set N1 and time  0.5500000E+00

       235 -1.992304E-21  0.000000E+00 -3.180410E-20
       506 -8.738232E-11 -5.325522E-01 -7.153048E-02

 displacements (vx,vy,vz) for set N1 and time  0.6000000E+00

       235  5.121105E-12 -4.087636E-02  3.736982E-03
       506 -8.911834E-11 -5.408764E-01 -7.298446E-02

 displacements (vx,vy,vz) for set N1 and time  0.6500000E+00

       235  8.076994E-12 -6.531653E-02  5.851760E-03
       506 -9.418233E-11 -5.653165E-01 -7.735790E-02

 displacements (vx,vy,vz) for set N1 and time  0.7000000E+00

       235  1.095669E-11 -8.978126E-02  7.879122E-03
       506 -9.934854E-11 -5.897813E-01 -8.183311E-02

 displacements (vx,vy,vz) for set N1 and time  0.7500000E+00

       235  1.375947E-11 -1.142691E-01  9.818758E-03
       506 -1.046166E-10 -6.142691E-01 -8.641036E-02

 displacements (vx,vy,vz) for set N1 and time  0.8000000E+00

       235  1.648508E-11 -1.387787E-01  1.167038E-02
       506 -1.099884E-10 -6.387787E-01 -9.108989E-02

 displacements (vx,vy,vz) for set N1 and time  0.8500000E+00

       235  1.913283E-11 -1.633086E-01  1.343370E-02
       506 -1.154635E-10 -6.633086E-01 -9.587192E-02

 displacements (vx,vy,vz) for set N1 and time  0.9000000E+00

       235  2.170244E-11 -1.878574E-01  1.510846E-02
       506 -1.210410E-10 -6.878574E-01 -1.007567E-01

 displacements (vx,vy,vz) for set N1 and time  0.9500000E+00

       235  2.419382E-11 -2.124237E-01  1.669443E-02
       506 -1.267208E-10 -7.124237E-01 -1.057443E-01

 displacements (vx,vy,vz) for set N1 and time  0.1000000E+01

       235  2.660605E-11 -2.370059E-01  1.819137E-02
       506 -1.325074E-10 -7.370059E-01 -1.108350E-01

 displacements (vx,vy,vz) for set N1 and time  0.1050000E+01

       235  2.419330E-11 -2.124236E-01  1.669442E-02
       506 -1.267229E-10 -7.124236E-01 -1.057442E-01

 displacements (vx,vy,vz) for set N1 and time  0.1100000E+01

       235  2.170255E-11 -1.878574E-01  1.510846E-02
       506 -1.210397E-10 -6.878574E-01 -1.007567E-01

 displacements (vx,vy,vz) for set N1 and time  0.1150000E+01

       235  1.913292E-11 -1.633086E-01  1.343370E-02
       506 -1.154628E-10 -6.633086E-01 -9.587192E-02

 displacements (vx,vy,vz) for set N1 and time  0.1200000E+01

       235  1.648500E-11 -1.387787E-01  1.167038E-02
       506 -1.099880E-10 -6.387787E-01 -9.108989E-02

 displacements (vx,vy,vz) for set N1 and time  0.1250000E+01

       235  1.375957E-11 -1.142691E-01  9.818758E-03
       506 -1.046164E-10 -6.142691E-01 -8.641036E-02

 displacements (vx,vy,vz) for set N1 and time  0.1300000E+01

       235  1.095663E-11 -8.978126E-02  7.879122E-03
       506 -9.934871E-11 -5.897813E-01 -8.183311E-02

 displacements (vx,vy,vz) for set N1 and time  0.1350000E+01

       235  8.077061E-12 -6.531654E-02  5.851760E-03
       506 -9.418268E-11 -5.653165E-01 -7.735790E-02

 displacements (vx,vy,vz) for set N1 and time  0.1400000E+01

       235  5.120974E-12 -4.087637E-02  3.736983E-03
       506 -8.911816E-11 -5.408764E-01 -7.298446E-02

 displacements (vx,vy,vz) for set N1 and time  0.1450000E+01

       235  2.089015E-12 -1.646213E-02  1.535118E-03
       506 -8.415618E-11 -5.164621E-01 -6.871253E-02

 displacements (vx,vy,vz) for set N1 and time  0.1500000E+01

       235 -1.018444E-12  7.924809E-03 -7.534938E-04
       506 -7.929364E-11 -4.920752E-01 -6.454181E-02

 displacements (vx,vy,vz) for set N1 and time  0.1550000E+01

       235  9.829866E-18  1.193336E-09 -1.173586E-10
       506 -6.851266E-11 -4.359989E-01 -5.527789E-02

 displacements (vx,vy,vz) for set N1 and time  0.1600000E+01

       235  1.570242E-19 -1.110223E-16  2.427322E-17
       506 -5.955283E-11 -3.876318E-01 -4.768811E-02

 displacements (vx,vy,vz) for set N1 and time  0.1650000E+01

       235 -2.533721E-20  0.000000E+00 -5.933641E-20
       506 -5.093748E-11 -3.392202E-01 -4.045833E-02

 displacements (vx,vy,vz) for set N1 and time  0.1700000E+01

       235  6.720913E-20  0.000000E+00 -6.777195E-20
       506 -4.265483E-11 -2.907746E-01 -3.358973E-02

 displacements (vx,vy,vz) for set N1 and time  0.1750000E+01

       235 -1.830598E-19  2.775558E-17 -4.787250E-20
       506 -3.470685E-11 -2.423059E-01 -2.708332E-02

 displacements (vx,vy,vz) for set N1 and time  0.1800000E+01

       235 -9.821128E-20  0.000000E+00 -9.991576E-20
       506 -2.709370E-11 -1.938251E-01 -2.093984E-02

 displacements (vx,vy,vz) for set N1 and time  0.1850000E+01

       235 -2.736580E-21  0.000000E+00 -1.381519E-19
       506 -1.981617E-11 -1.453433E-01 -1.515972E-02

 displacements (vx,vy,vz) for set N1 and time  0.1900000E+01

       235 -4.811255E-20 -1.387779E-17 -1.577916E-19
       506 -1.287471E-11 -9.687123E-02 -9.743142E-03

 displacements (vx,vy,vz) for set N1 and time  0.1950000E+01

       235 -1.194685E-19  6.938894E-18 -1.775924E-19
       506 -6.269464E-12 -4.841988E-02 -4.690025E-03

 displacements (vx,vy,vz) for set N1 and time  0.2000000E+01

       235 -1.327410E-19 -7.369187E-19 -1.973222E-19
       506 -7.170616E-18  4.477597E-11  7.157934E-12
