
 displacements (vx,vy,vz) for set NALL and time  0.1000000E+01

         1  1.908168E-04  0.000000E+00  0.000000E+00
         2  1.908168E-04  4.700000E-01  5.458857E+02
         3  1.908168E-04  9.797099E-01  0.000000E+00
         4  1.908168E-04  4.678077E-01  5.458454E+02
         5  1.908168E-04  9.800663E-01  0.000000E+00
         6  1.908168E-04  4.656081E-01  5.458044E+02
         7  1.908168E-04  9.804497E-01  0.000000E+00
         8  1.908168E-04  4.634012E-01  5.457626E+02
         9  1.908168E-04  9.808634E-01  0.000000E+00
        10  1.908168E-04  4.611868E-01  5.457200E+02
        11  1.908168E-04  9.813154E-01  0.000000E+00
        12  1.908168E-04  4.589650E-01  5.456766E+02
        13  1.908168E-04  9.818131E-01  0.000000E+00
        14  1.908168E-04  4.567354E-01  5.456324E+02
        15  1.908168E-04  9.823733E-01  0.000000E+00
        16  1.908168E-04  4.544982E-01  5.455874E+02
        17  1.908168E-04  9.830158E-01  0.000000E+00
        18  1.908168E-04  4.522531E-01  5.455414E+02
        19  1.908168E-04  9.837781E-01  0.000000E+00
        20  1.908168E-04  4.500000E-01  5.454946E+02
        21  1.908168E-04  0.000000E+00  0.000000E+00

 temperatures for set NALL and time  0.1000000E+01

         1  0.000000E+00
         2  5.500000E+02
         3  0.000000E+00
         4  5.500000E+02
         5  0.000000E+00
         6  5.500000E+02
         7  0.000000E+00
         8  5.500000E+02
         9  0.000000E+00
        10  5.500000E+02
        11  0.000000E+00
        12  5.500000E+02
        13  0.000000E+00
        14  5.500000E+02
        15  0.000000E+00
        16  5.500000E+02
        17  0.000000E+00
        18  5.500000E+02
        19  0.000000E+00
        20  5.500000E+02
        21  0.000000E+00
