
 displacements (vx,vy,vz) for set NALL and time  0.1000000E+01

         1 -4.995115E-04  0.000000E+00  0.000000E+00
         2  4.995115E-04  4.400000E-01  4.975758E+02
         3 -4.995115E-04  9.858962E-01  0.000000E+00
         4  4.995115E-04  4.433089E-01  4.992469E+02
         5 -4.995115E-04  9.850824E-01  0.000000E+00
         6  4.995115E-04  4.465313E-01  5.007559E+02
         7 -4.995115E-04  9.844207E-01  0.000000E+00
         8  4.995115E-04  4.496761E-01  5.021310E+02
         9 -4.995115E-04  9.838568E-01  0.000000E+00
        10  4.995115E-04  4.527504E-01  5.033926E+02
        11 -4.995115E-04  9.833632E-01  0.000000E+00
        12  4.995115E-04  4.557603E-01  5.045575E+02
        13 -4.995115E-04  9.829204E-01  0.000000E+00
        14  4.995115E-04  4.587108E-01  5.056387E+02
        15 -4.995115E-04  9.825179E-01  0.000000E+00
        16  4.995115E-04  4.616065E-01  5.066470E+02
        17 -4.995115E-04  9.821484E-01  0.000000E+00
        18  4.995115E-04  4.644510E-01  5.075911E+02
        19 -4.995115E-04  9.818051E-01  0.000000E+00
        20  4.995115E-04  4.672479E-01  5.084781E+02
        21 -4.995115E-04  9.814848E-01  0.000000E+00
        22  4.995115E-04  4.700000E-01  5.093142E+02
        23 -4.995115E-04  0.000000E+00  0.000000E+00

 temperatures for set NALL and time  0.1000000E+01

         1  0.000000E+00
         2  5.500000E+02
         3  0.000000E+00
         4  5.500000E+02
         5  0.000000E+00
         6  5.500000E+02
         7  0.000000E+00
         8  5.500000E+02
         9  0.000000E+00
        10  5.500000E+02
        11  0.000000E+00
        12  5.500000E+02
        13  0.000000E+00
        14  5.500000E+02
        15  0.000000E+00
        16  5.500000E+02
        17  0.000000E+00
        18  5.500000E+02
        19  0.000000E+00
        20  5.500000E+02
        21  0.000000E+00
        22  5.500000E+02
        23  0.000000E+00
