
 displacements (vx,vy,vz) for set NALL and time  0.1000000E+01

         1  4.448753E-04  0.000000E+00  0.000000E+00
         2  4.448759E-04  4.700000E-01  5.214949E+02
         3  4.448759E-04  9.797099E-01  0.000000E+00
         4  4.448759E-04  4.678611E-01  5.211263E+02
         5  4.448759E-04  9.800663E-01  0.000000E+00
         6  4.448760E-04  4.657029E-01  5.207456E+02
         7  4.448760E-04  9.804497E-01  0.000000E+00
         8  4.448761E-04  4.635249E-01  5.203523E+02
         9  4.448761E-04  9.808634E-01  0.000000E+00
        10  4.448762E-04  4.613264E-01  5.199455E+02
        11  4.448762E-04  9.813154E-01  0.000000E+00
        12  4.448763E-04  4.591067E-01  5.195244E+02
        13  4.448763E-04  9.818131E-01  0.000000E+00
        14  4.448765E-04  4.568651E-01  5.190882E+02
        15  4.448765E-04  9.823733E-01  0.000000E+00
        16  4.448768E-04  4.546006E-01  5.186359E+02
        17  4.448768E-04  9.830158E-01  0.000000E+00
        18  4.448772E-04  4.523126E-01  5.181665E+02
        19  4.448772E-04  9.837781E-01  0.000000E+00
        20  4.448753E-04  4.500000E-01  5.176787E+02
        21  4.448753E-04  0.000000E+00  0.000000E+00

 temperatures for set NALL and time  0.1000000E+01

         1  0.000000E+00
         2  5.500000E+02
         3  0.000000E+00
         4  5.500000E+02
         5  0.000000E+00
         6  5.500000E+02
         7  0.000000E+00
         8  5.500000E+02
         9  0.000000E+00
        10  5.500000E+02
        11  0.000000E+00
        12  5.500000E+02
        13  0.000000E+00
        14  5.500000E+02
        15  0.000000E+00
        16  5.500000E+02
        17  0.000000E+00
        18  5.500000E+02
        19  0.000000E+00
        20  5.500000E+02
        21  0.000000E+00
