
 displacements (vx,vy,vz) for set NALL and time  0.1000000E-03

         1 -6.029810E-10 -9.999951E-05 -1.278607E-13
         2 -1.837036E-05 -2.369487E-05 -2.849139E-10
         3 -2.135828E-06 -2.351388E-05 -7.512576E-10
         4  9.572990E-11 -9.999961E-05  2.847143E-14
         5 -1.614308E-05 -4.922442E-05 -1.205227E-08
         6 -4.781704E-06 -2.348016E-05  5.534598E-11
         7  1.055295E-07 -4.960043E-05  6.812778E-10
         8  0.000000E+00 -1.000000E-04  0.000000E+00
         9  1.660159E-08 -2.470056E-05  2.339943E-10
        10 -2.769083E-11 -9.999955E-05 -2.148025E-15
        11 -3.513207E-07 -2.433374E-05  1.168293E-10
        12 -2.318492E-07 -4.884898E-05  5.963430E-10
        13  0.000000E+00 -1.000000E-04  0.000000E+00
        14  1.570855E-08 -2.447932E-05 -4.981813E-11
        15  6.459143E-12 -9.999957E-05  7.170146E-16
        16  3.405800E-08 -2.453972E-05 -1.128639E-10
        17  4.816906E-08 -4.864951E-05 -1.379590E-10
        18  0.000000E+00 -1.000000E-04  0.000000E+00
        19  1.627630E-08 -2.449502E-05  5.762931E-11
        20 -1.385615E-12 -9.999956E-05  5.566472E-16
        21  1.519730E-08 -2.448730E-05  1.167702E-10
        22  5.807530E-10 -4.863197E-05  1.131944E-10
        23  0.000000E+00 -1.000000E-04  0.000000E+00
        24  7.568662E-11 -2.449648E-05 -4.264609E-11
        25  9.723887E-16 -9.999956E-05 -2.522760E-15
        26  6.629593E-09 -2.449473E-05  2.860980E-11
        27  7.794147E-11 -4.862710E-05 -1.620621E-10
        28  0.000000E+00 -1.000000E-04  0.000000E+00
        29 -1.612487E-08 -2.449502E-05  3.935256E-11
        30  1.387568E-12 -9.999956E-05  5.183970E-15
        31 -6.478207E-09 -2.449473E-05 -1.073023E-10
        32 -4.248756E-10 -4.863197E-05  2.674387E-10
        33  0.000000E+00 -1.000000E-04  0.000000E+00
        34 -1.555703E-08 -2.447932E-05 -2.151518E-11
        35 -6.457206E-12 -9.999957E-05 -5.598080E-15
        36 -1.504583E-08 -2.448730E-05  3.078265E-11
        37 -4.801317E-08 -4.864951E-05 -1.722611E-10
        38  0.000000E+00 -1.000000E-04  0.000000E+00
        39 -1.645031E-08 -2.470056E-05 -1.126129E-10
        40  2.769283E-11 -9.999955E-05  1.945930E-15
        41 -3.390667E-08 -2.453972E-05  8.685096E-11
        42  2.320043E-07 -4.884898E-05 -5.373935E-10
        43  0.000000E+00 -1.000000E-04  0.000000E+00
        44  2.135978E-06 -2.351390E-05  6.425128E-10
        45 -9.572805E-11 -9.999961E-05 -2.478830E-14
        46  3.514725E-07 -2.433375E-05 -2.133978E-10
        47 -1.053797E-07 -4.960043E-05 -5.794006E-10
        48  0.000000E+00 -1.000000E-04  0.000000E+00
        49  1.837050E-05 -2.369494E-05  2.417046E-10
        50  6.029840E-10 -9.999951E-05  1.266388E-13
        51  4.781853E-06 -2.348019E-05  7.124287E-11
        52  1.614323E-05 -4.922446E-05  1.230906E-08
        53  0.000000E+00 -1.000000E-04  0.000000E+00
        54 -7.992260E-06 -5.949213E-06  1.053814E-09
        55 -1.926460E-06 -5.916477E-06  2.404533E-10
        56 -1.306908E-05 -1.125900E-05  4.547973E-09
        57 -4.567188E-06 -5.346043E-06  2.080126E-10
        58 -2.339857E-06 -1.212443E-05 -2.409882E-11
        59 -3.002383E-07 -6.778480E-06 -1.212652E-11
        60 -9.345194E-07 -6.375643E-06 -9.619905E-11
        61 -1.106850E-07 -1.298871E-05 -4.088470E-10
        62 -3.773183E-08 -7.124353E-06 -7.250468E-11
        63 -9.292020E-08 -7.036605E-06 -2.489071E-11
        64  8.887026E-09 -1.328814E-05 -1.582275E-11
        65  4.950869E-09 -7.252068E-06  3.974641E-14
        66 -1.473682E-09 -7.206000E-06 -3.257892E-11
        67  1.185183E-08 -1.333916E-05  5.947061E-11
        68  4.175276E-11 -7.277679E-06  5.335203E-11
        69  4.044242E-09 -7.272262E-06  3.523756E-11
        70  5.644603E-11 -1.335047E-05  2.841995E-11
        71 -4.867386E-09 -7.252069E-06 -6.558857E-11
        72 -3.960738E-09 -7.272262E-06  1.601815E-11
        73 -1.173892E-08 -1.333916E-05 -1.054162E-10
        74  3.781508E-08 -7.124356E-06  6.650528E-11
        75  1.557120E-09 -7.206002E-06 -6.226513E-11
        76 -8.774042E-09 -1.328815E-05  1.060897E-11
        77  3.003208E-07 -6.778489E-06  8.272408E-13
        78  9.300321E-08 -7.036610E-06  5.403580E-11
        79  1.107978E-07 -1.298872E-05  4.951200E-10
        80  1.926541E-06 -5.916497E-06 -2.596965E-10
        81  9.346005E-07 -6.375656E-06  1.020435E-10
        82  2.339969E-06 -1.212445E-05 -8.010870E-11
        83  7.992344E-06 -5.949251E-06 -1.072484E-09
        84  4.567267E-06 -5.346073E-06 -2.450002E-10
        85  1.306919E-05 -1.125906E-05 -4.827286E-09
        86 -3.405328E-06 -1.621068E-06 -1.761513E-10
        87 -1.510162E-06 -1.334957E-06 -8.769921E-11
        88 -5.295926E-06 -3.182074E-06 -6.450150E-10
        89 -2.482957E-06 -1.366995E-06 -1.095619E-10
        90 -1.857873E-06 -2.785531E-06 -2.138188E-10
        91 -4.743003E-07 -1.643442E-06 -1.106036E-11
        92 -8.517321E-07 -1.472141E-06  2.177270E-11
        93 -4.113046E-07 -3.413842E-06  2.145162E-10
        94 -1.013897E-07 -1.950306E-06  1.628466E-11
        95 -2.212530E-07 -1.815624E-06  4.788582E-11
        96 -7.053732E-08 -3.767522E-06  1.217533E-11
        97 -2.036792E-08 -2.077407E-06  1.168375E-11
        98 -4.889098E-08 -2.029145E-06 -1.813165E-11
        99 -8.654082E-09 -3.896714E-06 -5.182456E-11
       100  2.146975E-11 -2.108838E-06 -1.974583E-11
       101 -7.421237E-09 -2.102213E-06 -2.371239E-12
       102  2.997413E-11 -3.931664E-06  2.261492E-11
       103  2.041073E-08 -2.077409E-06  1.288591E-12
       104  7.464148E-09 -2.102213E-06 -4.588867E-12
       105  8.713946E-09 -3.896715E-06  1.688840E-11
       106  1.014320E-07 -1.950309E-06  2.605129E-14
       107  4.893359E-08 -2.029147E-06  1.858774E-11
       108  7.059676E-08 -3.767525E-06  5.048969E-12
       109  4.743413E-07 -1.643448E-06  3.671540E-12
       110  2.212948E-07 -1.815628E-06 -3.033995E-11
       111  4.113629E-07 -3.413850E-06 -2.396356E-10
       112  1.510202E-06 -1.334968E-06  9.080152E-11
       113  8.517724E-07 -1.472149E-06 -4.297855E-11
       114  1.857930E-06 -2.785547E-06  2.213695E-10
       115  3.405374E-06 -1.621088E-06  2.607901E-10
       116  2.482999E-06 -1.367009E-06  1.353802E-10
       117  5.295990E-06 -3.182102E-06  8.008649E-10
       118 -1.530595E-06 -5.189254E-07  1.081144E-11
       119 -8.571005E-07 -2.703523E-07  2.092982E-11
       120 -2.288229E-06 -9.324831E-07  1.916297E-10
       121 -1.176174E-06 -3.363998E-07  3.731954E-11
       122 -1.161267E-06 -6.023473E-07  8.764068E-11
       123 -3.565197E-07 -3.415471E-07  8.782442E-12
       124 -5.716887E-07 -2.837587E-07  2.871343E-12
       125 -4.326742E-07 -7.706767E-07 -5.288686E-11
       126 -1.240656E-07 -4.683369E-07 -4.270517E-13
       127 -2.190413E-07 -4.052984E-07 -1.889092E-11
       128 -1.231444E-07 -9.714197E-07 -2.863469E-11
       129 -3.659238E-08 -5.480958E-07 -6.355714E-12
       130 -6.937143E-08 -5.158810E-07  3.667664E-12
       131 -2.957315E-08 -1.080949E-06  2.434974E-11
       132  1.086070E-11 -5.739032E-07  3.180139E-12
       133 -1.515574E-08 -5.676107E-07  4.570401E-12
       134  1.528856E-11 -1.112030E-06 -1.082989E-11
       135  3.661396E-08 -5.480965E-07  1.614436E-12
       136  1.517743E-08 -5.676111E-07 -7.950738E-12
       137  2.960358E-08 -1.080950E-06 -1.732940E-11
       138  1.240867E-07 -4.683386E-07  6.955509E-13
       139  6.939283E-08 -5.158822E-07  1.787471E-12
       140  1.231743E-07 -9.714220E-07  3.399521E-11
       141  3.565400E-07 -3.415503E-07 -4.210984E-12
       142  2.190620E-07 -4.053008E-07  1.729317E-11
       143  4.327030E-07 -7.706812E-07  5.896816E-11
       144  8.571207E-07 -2.703576E-07 -2.805922E-11
       145  5.717088E-07 -2.837628E-07  7.237056E-13
       146  1.161295E-06 -6.023549E-07 -9.734845E-11
       147  1.530619E-06 -5.189345E-07 -4.680380E-11
       148  1.176196E-06 -3.364068E-07 -5.147305E-11
       149  2.288262E-06 -9.324965E-07 -1.972743E-10
       150 -6.466989E-07 -1.616883E-07 -7.516780E-12
       151 -4.299616E-07 -4.017493E-08 -5.076225E-12
       152 -9.991497E-07 -2.880255E-07 -7.989014E-11
       153 -5.512795E-07 -8.499991E-08 -8.184053E-12
       154 -6.151762E-07 -1.106414E-07 -2.378575E-11
       155 -2.253054E-07 -3.868393E-08 -2.924820E-12
       156 -3.221879E-07 -2.914109E-08 -6.568676E-12
       157 -2.911121E-07 -1.316568E-07  6.843076E-12
       158 -9.939704E-08 -8.229919E-08 -4.547598E-13
       159 -1.529094E-07 -5.927061E-08  5.837433E-12
       160 -1.149724E-07 -2.087932E-07  1.532226E-11
       161 -3.475401E-08 -1.196468E-07  1.883451E-12
       162 -6.108051E-08 -1.032191E-07  1.932282E-12
       163 -3.725905E-08 -2.654477E-07 -4.423245E-12
       164  5.456876E-12 -1.330196E-07 -1.007959E-12
       165 -1.573268E-08 -1.294381E-07 -2.537166E-12
       166  7.706722E-12 -2.841483E-07  1.248980E-12
       167  3.476482E-08 -1.196473E-07 -1.054672E-13
       168  1.574357E-08 -1.294383E-07  2.926685E-12
       169  3.727434E-08 -2.654483E-07  4.268972E-12
       170  9.940757E-08 -8.230012E-08  7.729081E-13
       171  6.109120E-08 -1.032198E-07 -1.874382E-12
       172  1.149873E-07 -2.087945E-07 -1.705254E-11
       173  2.253156E-07 -3.868552E-08  9.054493E-13
       174  1.529198E-07 -5.927184E-08 -6.468237E-12
       175  2.911265E-07 -1.316590E-07 -1.006229E-11
       176  4.299718E-07 -4.017750E-08  6.304820E-12
       177  3.221980E-07 -2.914310E-08  5.713682E-12
       178  6.151905E-07 -1.106450E-07  2.733610E-11
       179  6.467108E-07 -1.616929E-07  9.940840E-12
       180  5.512902E-07 -8.500325E-08  1.147998E-11
       181  9.991664E-07 -2.880320E-07  6.424670E-11
       182 -2.862103E-07 -6.214019E-08  2.927835E-12
       183 -2.097812E-07 -5.615412E-10  2.557375E-12
       184 -4.292574E-07 -1.015329E-07  2.216681E-11
       185 -2.503097E-07 -2.475672E-08  3.111751E-12
       186 -3.015644E-07 -1.097110E-08  6.916190E-12
       187 -1.263413E-07  1.323468E-08  3.967731E-13
       188 -1.663957E-07  1.080080E-08  1.735380E-12
       189 -1.712516E-07  4.233145E-10 -3.032548E-14
       190 -6.403853E-08  2.279526E-09 -1.161615E-13
       191 -9.204702E-08  9.329901E-09  2.514055E-13
       192 -8.150996E-08 -2.282180E-08 -4.600890E-12
       193 -2.543455E-08 -1.146364E-08 -2.859808E-13
       194 -4.253300E-08 -5.057703E-09 -1.979404E-12
       195 -3.063291E-08 -4.603606E-08 -9.637336E-13
       196  2.727507E-12 -1.691978E-08  3.700632E-15
       197 -1.195784E-08 -1.547316E-08 -1.024244E-14
       198  3.863004E-12 -5.484207E-08 -5.732313E-13
       199  2.543995E-08 -1.146386E-08  3.736073E-13
       200  1.196328E-08 -1.547327E-08  1.561470E-13
       201  3.064056E-08 -4.603637E-08  1.358887E-12
       202  6.404378E-08  2.279056E-09 -6.991480E-13
       203  4.253834E-08 -5.058045E-09  1.292926E-12
       204  8.151741E-08 -2.282246E-08  5.247590E-12
       205  1.263464E-07  1.323391E-08  7.484387E-13
       206  9.205218E-08  9.329288E-09  8.341414E-13
       207  1.712588E-07  4.222032E-10  1.212946E-12
       208  2.097863E-07 -5.627965E-10 -2.055206E-12
       209  1.664008E-07  1.079982E-08 -1.757965E-12
       210  3.015717E-07 -1.097289E-08 -6.672416E-12
       211  2.862163E-07 -6.214247E-08 -1.699131E-12
       212  2.503151E-07 -2.475839E-08 -2.778300E-12
       213  4.292659E-07 -1.015362E-07 -1.662637E-11
       214 -1.257096E-07 -2.539367E-08 -1.130291E-12
       215 -9.834924E-08  3.319917E-09 -7.285402E-13
       216 -1.898180E-07 -3.974447E-08 -6.243678E-12
       217 -1.134910E-07 -8.826374E-09 -9.421935E-13
       218 -1.443191E-07  2.879961E-09 -2.123519E-12
       219 -6.522187E-08  1.396654E-08  1.163014E-13
       220 -8.189658E-08  1.050559E-08 -4.837241E-13
       221 -9.177193E-08  1.574716E-08 -7.553808E-14
       222 -3.672576E-08  1.318053E-08  3.858097E-14
       223 -5.017208E-08  1.442315E-08 -4.549270E-13
       224 -4.929158E-08  1.153611E-08  1.016534E-12
       225 -1.587734E-08  9.200317E-09 -6.031559E-14
       226 -2.547340E-08  1.119652E-08  4.911858E-13
       227 -2.049281E-08  3.858344E-09  1.014900E-12
       228  1.349424E-12  7.312936E-09  5.915657E-14
       229 -7.606482E-09  7.851858E-09  5.192058E-13
       230  1.923620E-12  5.324118E-10  2.032257E-13
       231  1.588001E-08  9.200204E-09 -1.316847E-13
       232  7.609173E-09  7.851803E-09 -5.289897E-13
       233  2.049662E-08  3.858185E-09 -9.221296E-13
       234  3.672836E-08  1.318029E-08  3.237758E-13
       235  2.547604E-08  1.119635E-08 -3.165836E-13
       236  4.929529E-08  1.153578E-08 -1.228177E-12
       237  6.522439E-08  1.396616E-08 -2.835954E-13
       238  5.017464E-08  1.442285E-08  1.238777E-13
       239  9.177552E-08  1.574661E-08  2.681557E-13
       240  9.835180E-08  3.319286E-09  5.712915E-13
       241  8.189910E-08  1.050510E-08  7.258918E-13
       242  1.443228E-07  2.879074E-09  1.353638E-12
       243  1.257126E-07 -2.539482E-08  5.631356E-13
       244  1.134937E-07 -8.827211E-09  3.676985E-13
       245  1.898223E-07 -3.974610E-08  2.869722E-12
       246 -5.464360E-08 -1.198012E-08  8.243510E-13
       247 -4.422672E-08  1.835724E-09 -6.565819E-14
       248 -8.336051E-08 -1.750164E-08  2.121011E-12
       249 -4.987602E-08 -4.170960E-09  1.573311E-13
       250 -6.656162E-08  2.674172E-09  3.571962E-13
       251 -3.126219E-08  8.408799E-09 -2.571502E-14
       252 -3.788453E-08  5.872758E-09  5.940341E-14
       253 -4.579544E-08  1.117366E-08 -2.105300E-13
       254 -1.885524E-08  9.814140E-09 -1.831490E-13
       255 -2.485482E-08  9.542434E-09 -5.141922E-14
       256 -2.679342E-08  1.200599E-08 -6.242510E-13
       257 -8.599525E-09  9.137294E-09  6.657122E-14
       258 -1.347037E-08  9.571235E-09 -7.926351E-14
       259 -1.193695E-08  1.016915E-08 -4.337464E-13
       260  6.421994E-13  8.645783E-09 -8.626890E-14
       261 -4.192461E-09  8.799288E-09 -2.423238E-13
       262  9.395767E-13  9.163162E-09 -9.281731E-14
       263  8.600796E-09  9.137239E-09  3.567861E-14
       264  4.193742E-09  8.799261E-09  1.816190E-13
       265  1.193881E-08  1.016907E-08  2.908307E-13
       266  1.885647E-08  9.814025E-09 -3.436139E-14
       267  1.347162E-08  9.571151E-09  2.755004E-14
       268  2.679523E-08  1.200582E-08  4.792454E-13
       269  3.126339E-08  8.408608E-09  3.208462E-15
       270  2.485604E-08  9.542285E-09  1.903877E-14
       271  4.579720E-08  1.117339E-08  1.266586E-13
       272  4.422794E-08  1.835403E-09  5.030657E-14
       273  3.788573E-08  5.872512E-09 -2.254788E-13
       274  6.656340E-08  2.673723E-09  1.752333E-13
       275  5.464503E-08 -1.198072E-08  3.084750E-13
       276  4.987731E-08 -4.171393E-09  1.748973E-13
       277  8.336259E-08 -1.750247E-08 -1.543232E-14
       278 -2.059769E-08 -6.567107E-09 -1.445339E-13
       279 -1.660919E-08  5.111286E-10 -7.569146E-14
       280 -3.484590E-08 -8.906261E-09 -5.965981E-13
       281 -1.851773E-08 -2.401677E-09 -1.317623E-13
       282 -2.835273E-08  1.108449E-09 -2.177891E-13
       283 -1.215584E-08  4.212415E-09  1.660475E-14
       284 -1.439227E-08  2.767461E-09 -4.875322E-14
       285 -2.045779E-08  6.092817E-09  3.390216E-13
       286 -7.696533E-09  5.400481E-09  9.621471E-14
       287 -9.903094E-09  5.016174E-09  2.607104E-14
       288 -1.266775E-08  7.579832E-09  3.930182E-13
       289 -3.647819E-09  5.499959E-09 -1.396564E-14
       290 -5.617252E-09  5.521975E-09  8.336068E-14
       291 -5.900373E-09  7.476781E-09  1.694381E-13
       292  2.556036E-13  5.423053E-09  5.448392E-14
       293 -1.797159E-09  5.451892E-09  3.267551E-14
       294  4.233501E-13  7.265192E-09 -1.525081E-14
       295  3.648325E-09  5.499934E-09 -1.388439E-14
       296  1.797668E-09  5.451880E-09 -1.389306E-15
       297  5.901212E-09  7.476743E-09 -1.181867E-13
       298  7.697025E-09  5.400430E-09 -2.341604E-14
       299  5.617752E-09  5.521937E-09 -5.463392E-14
       300  1.266857E-08  7.579753E-09 -2.390157E-13
       301  1.215631E-08  4.212331E-09  6.431704E-14
       302  9.903577E-09  5.016108E-09  1.136388E-13
       303  2.045858E-08  6.092684E-09 -1.460467E-13
       304  1.660968E-08  5.109738E-10 -8.076617E-14
       305  1.439275E-08  2.767349E-09 -1.184393E-13
       306  2.835353E-08  1.108222E-09 -3.822860E-13
       307  2.059829E-08 -6.567421E-09 -1.774483E-13
       308  1.851824E-08 -2.401888E-09  1.011083E-14
       309  3.484687E-08 -8.906703E-09  2.314099E-13
       310 -2.011956E-13 -6.152106E-14  6.618005E-18
       311 -1.292202E-13  1.718035E-14  1.777435E-18
       312 -9.536028E-09 -4.620499E-09  4.633494E-13
       313  0.000000E+00  0.000000E+00  0.000000E+00
       314 -7.342427E-09  4.567385E-10  7.612649E-14
       315 -1.111768E-13  1.757000E-14 -3.056095E-18
       316  0.000000E+00  0.000000E+00  0.000000E+00
       317 -5.595102E-09  2.442382E-09 -3.339928E-13
       318 -7.099932E-14  2.560731E-14 -3.481013E-18
       319  0.000000E+00  0.000000E+00  0.000000E+00
       320 -3.614357E-09  3.117918E-09 -3.022518E-13
       321 -3.510777E-14  2.479777E-14 -4.024210E-19
       322  0.000000E+00  0.000000E+00  0.000000E+00
       323 -1.745083E-09  3.209324E-09 -5.531769E-14
       324  2.389519E-18  2.489644E-14  7.790566E-20
       325  0.000000E+00  0.000000E+00  0.000000E+00
       326  1.198674E-13  3.180697E-09  5.901701E-14
       327  3.511251E-14  2.479767E-14  8.141885E-19
       328  0.000000E+00  0.000000E+00  0.000000E+00
       329  1.745320E-09  3.209311E-09  6.369106E-14
       330  7.100388E-14  2.560716E-14  4.990129E-19
       331  0.000000E+00  0.000000E+00  0.000000E+00
       332  3.614587E-09  3.117891E-09  6.843819E-14
       333  1.111813E-13  1.756962E-14  1.308322E-18
       334  0.000000E+00  0.000000E+00  0.000000E+00
       335  5.595325E-09  2.442339E-09  1.867856E-13
       336  1.292240E-13  1.718024E-14  1.518079E-18
       337  0.000000E+00  0.000000E+00  0.000000E+00
       338  7.342647E-09  4.566640E-10  1.566402E-13
       339  2.012019E-13 -6.152335E-14 -3.037383E-18
       340  0.000000E+00  0.000000E+00  0.000000E+00
       341  9.536322E-09 -4.620693E-09 -2.316662E-13
