    1C
    1UUSER                                                              
    1UDATE              04.march.2015                                   
    1UTIME              20:04:58                                        
    1UHOST                                                              
    1UPGM               CalculiX                                        
    1UDIR                                                               
    1UDBN                                                               
    1UMAT    1TENSION_ONLY                                              
    2C                           803                                     1
 -1       342 2.29000E+02 2.85248E-08 3.81238E-02
 -1       343 2.29000E+02 0.00000E+00 2.37788E-05
 -1       344 2.29000E+02-2.85248E-08-3.80762E-02
 -1       345 2.06100E+02 1.57244E-07 3.81291E-02
 -1       346 2.06100E+02 0.00000E+00 2.91066E-05
 -1       347 2.06100E+02-1.57244E-07-3.80709E-02
 -1       348 2.06100E+02 2.29000E+01 3.81846E-02
 -1       349 2.06100E+02 2.29000E+01 8.45814E-05
 -1       350 2.06100E+02 2.29000E+01-3.80154E-02
 -1       351 2.29000E+02 2.29000E+01 3.81152E-02
 -1       352 2.29000E+02 2.29000E+01 1.52208E-05
 -1       353 2.29000E+02 2.29000E+01-3.80848E-02
 -1       354 2.17550E+02 9.44644E-08 3.81586E-02
 -1       356 2.17550E+02-9.44644E-08-3.80414E-02
 -1       357 2.06100E+02 1.14500E+01 3.81193E-02
 -1       359 2.06100E+02 1.14500E+01-3.80807E-02
 -1       360 2.17550E+02 2.29000E+01 3.81811E-02
 -1       362 2.17550E+02 2.29000E+01-3.80189E-02
 -1       363 2.29000E+02 1.14500E+01 3.81174E-02
 -1       365 2.29000E+02 1.14500E+01-3.80826E-02
 -1       366 2.06100E+02 4.58000E+01 3.81485E-02
 -1       367 2.06100E+02 4.58000E+01 4.84983E-05
 -1       368 2.06100E+02 4.58000E+01-3.80515E-02
 -1       369 2.29000E+02 4.58000E+01 3.81152E-02
 -1       370 2.29000E+02 4.58000E+01 1.51863E-05
 -1       371 2.29000E+02 4.58000E+01-3.80848E-02
 -1       372 2.06100E+02 3.43500E+01 3.81367E-02
 -1       374 2.06100E+02 3.43500E+01-3.80633E-02
 -1       375 2.17550E+02 4.58000E+01 3.81492E-02
 -1       377 2.17550E+02 4.58000E+01-3.80508E-02
 -1       378 2.29000E+02 3.43500E+01 3.81910E-02
 -1       380 2.29000E+02 3.43500E+01-3.80090E-02
 -1       381 2.06100E+02 6.87000E+01 3.81265E-02
 -1       382 2.06100E+02 6.87000E+01 2.65257E-05
 -1       383 2.06100E+02 6.87000E+01-3.80735E-02
 -1       384 2.29000E+02 6.87000E+01 3.81893E-02
 -1       385 2.29000E+02 6.87000E+01 8.93188E-05
 -1       386 2.29000E+02 6.87000E+01-3.80107E-02
 -1       387 2.06100E+02 5.72500E+01 3.81220E-02
 -1       389 2.06100E+02 5.72500E+01-3.80780E-02
 -1       390 2.17550E+02 6.87000E+01 3.81632E-02
 -1       392 2.17550E+02 6.87000E+01-3.80368E-02
 -1       393 2.29000E+02 5.72500E+01 3.81571E-02
 -1       395 2.29000E+02 5.72500E+01-3.80429E-02
 -1       396 2.06100E+02 9.16000E+01 3.81332E-02
 -1       397 2.06100E+02 9.16000E+01 3.32158E-05
 -1       398 2.06100E+02 9.16000E+01-3.80668E-02
 -1       399 2.29000E+02 9.16000E+01 3.81104E-02
 -1       400 2.29000E+02 9.16000E+01 1.04455E-05
 -1       401 2.29000E+02 9.16000E+01-3.80896E-02
 -1       402 2.06100E+02 8.01500E+01 3.81503E-02
 -1       404 2.06100E+02 8.01500E+01-3.80497E-02
 -1       405 2.17550E+02 9.16000E+01 3.81567E-02
 -1       407 2.17550E+02 9.16000E+01-3.80433E-02
 -1       408 2.29000E+02 8.01500E+01 3.81854E-02
 -1       410 2.29000E+02 8.01500E+01-3.80146E-02
 -1       411 2.06100E+02 1.14500E+02 3.81040E-02
 -1       412 2.06100E+02 1.14500E+02 4.01409E-06
 -1       413 2.06100E+02 1.14500E+02-3.80960E-02
 -1       414 2.29000E+02 1.14500E+02 3.81108E-02
 -1       415 2.29000E+02 1.14500E+02 1.08022E-05
 -1       416 2.29000E+02 1.14500E+02-3.80892E-02
 -1       417 2.06100E+02 1.03050E+02 3.81639E-02
 -1       419 2.06100E+02 1.03050E+02-3.80361E-02
 -1       420 2.17550E+02 1.14500E+02 3.81013E-02
 -1       422 2.17550E+02 1.14500E+02-3.80987E-02
 -1       423 2.29000E+02 1.03050E+02 3.81720E-02
 -1       425 2.29000E+02 1.03050E+02-3.80280E-02
 -1       426 2.06100E+02 1.37400E+02 3.81102E-02
 -1       427 2.06100E+02 1.37400E+02 1.01814E-05
 -1       428 2.06100E+02 1.37400E+02-3.80898E-02
 -1       429 2.29000E+02 1.37400E+02 3.81483E-02
 -1       430 2.29000E+02 1.37400E+02 4.82945E-05
 -1       431 2.29000E+02 1.37400E+02-3.80517E-02
 -1       432 2.06100E+02 1.25950E+02 3.81254E-02
 -1       434 2.06100E+02 1.25950E+02-3.80746E-02
 -1       435 2.17550E+02 1.37400E+02 3.81677E-02
 -1       437 2.17550E+02 1.37400E+02-3.80323E-02
 -1       438 2.29000E+02 1.25950E+02 3.81897E-02
 -1       440 2.29000E+02 1.25950E+02-3.80103E-02
 -1       441 2.06100E+02 1.60300E+02 3.81760E-02
 -1       442 2.06100E+02 1.60300E+02 7.59896E-05
 -1       443 2.06100E+02 1.60300E+02-3.80240E-02
 -1       444 2.29000E+02 1.60300E+02 3.81720E-02
 -1       445 2.29000E+02 1.60300E+02 7.20292E-05
 -1       446 2.29000E+02 1.60300E+02-3.80280E-02
 -1       447 2.06100E+02 1.48850E+02 3.81908E-02
 -1       449 2.06100E+02 1.48850E+02-3.80092E-02
 -1       450 2.17550E+02 1.60300E+02 3.81929E-02
 -1       452 2.17550E+02 1.60300E+02-3.80071E-02
 -1       453 2.29000E+02 1.48850E+02 3.81378E-02
 -1       455 2.29000E+02 1.48850E+02-3.80622E-02
 -1       456 2.06100E+02 1.83200E+02 3.81900E-02
 -1       457 2.06100E+02 1.83200E+02 8.99756E-05
 -1       458 2.06100E+02 1.83200E+02-3.80100E-02
 -1       459 2.29000E+02 1.83200E+02 3.81779E-02
 -1       460 2.29000E+02 1.83200E+02 7.78880E-05
 -1       461 2.29000E+02 1.83200E+02-3.80221E-02
 -1       462 2.06100E+02 1.71750E+02 3.81324E-02
 -1       464 2.06100E+02 1.71750E+02-3.80676E-02
 -1       465 2.17550E+02 1.83200E+02 3.81194E-02
 -1       467 2.17550E+02 1.83200E+02-3.80806E-02
 -1       468 2.29000E+02 1.71750E+02 3.81996E-02
 -1       470 2.29000E+02 1.71750E+02-3.80004E-02
 -1       471 2.06100E+02 2.06100E+02 3.81161E-02
 -1       472 2.06100E+02 2.06100E+02 1.61296E-05
 -1       473 2.06100E+02 2.06100E+02-3.80839E-02
 -1       474 2.29000E+02 2.06100E+02 3.81708E-02
 -1       475 2.29000E+02 2.06100E+02 7.08034E-05
 -1       476 2.29000E+02 2.06100E+02-3.80292E-02
 -1       477 2.06100E+02 1.94650E+02 3.81502E-02
 -1       479 2.06100E+02 1.94650E+02-3.80498E-02
 -1       480 2.17550E+02 2.06100E+02 3.81936E-02
 -1       482 2.17550E+02 2.06100E+02-3.80064E-02
 -1       483 2.29000E+02 1.94650E+02 3.81716E-02
 -1       485 2.29000E+02 1.94650E+02-3.80284E-02
 -1       486 2.06100E+02 2.29000E+02 3.81105E-02
 -1       487 2.06100E+02 2.29000E+02 1.05190E-05
 -1       488 2.06100E+02 2.29000E+02-3.80895E-02
 -1       489 2.29000E+02 2.29000E+02 3.81209E-02
 -1       490 2.29000E+02 2.29000E+02 2.09205E-05
 -1       491 2.29000E+02 2.29000E+02-3.80791E-02
 -1       492 2.06100E+02 2.17550E+02 3.81559E-02
 -1       494 2.06100E+02 2.17550E+02-3.80441E-02
 -1       495 2.17550E+02 2.29000E+02 3.81705E-02
 -1       497 2.17550E+02 2.29000E+02-3.80295E-02
 -1       498 2.29000E+02 2.17550E+02 3.81078E-02
 -1       500 2.29000E+02 2.17550E+02-3.80922E-02
 -1       501 1.83200E+02-1.37530E-07 3.81511E-02
 -1       502 1.83200E+02 0.00000E+00 5.10530E-05
 -1       503 1.83200E+02 1.37530E-07-3.80489E-02
 -1       504 1.83200E+02 2.29000E+01 3.81196E-02
 -1       505 1.83200E+02 2.29000E+01 1.96197E-05
 -1       506 1.83200E+02 2.29000E+01-3.80804E-02
 -1       507 1.94650E+02 9.07745E-10 3.81274E-02
 -1       509 1.94650E+02-9.07745E-10-3.80726E-02
 -1       510 1.83200E+02 1.14500E+01 3.81639E-02
 -1       512 1.83200E+02 1.14500E+01-3.80361E-02
 -1       513 1.94650E+02 2.29000E+01 3.81448E-02
 -1       515 1.94650E+02 2.29000E+01-3.80552E-02
 -1       516 1.83200E+02 4.58000E+01 3.81040E-02
 -1       517 1.83200E+02 4.58000E+01 3.98718E-06
 -1       518 1.83200E+02 4.58000E+01-3.80960E-02
 -1       519 1.83200E+02 3.43500E+01 3.81467E-02
 -1       521 1.83200E+02 3.43500E+01-3.80533E-02
 -1       522 1.94650E+02 4.58000E+01 3.81078E-02
 -1       524 1.94650E+02 4.58000E+01-3.80922E-02
 -1       525 1.83200E+02 6.87000E+01 3.81038E-02
 -1       526 1.83200E+02 6.87000E+01 3.81004E-06
 -1       527 1.83200E+02 6.87000E+01-3.80962E-02
 -1       528 1.83200E+02 5.72500E+01 3.81160E-02
 -1       530 1.83200E+02 5.72500E+01-3.80840E-02
 -1       531 1.94650E+02 6.87000E+01 3.81398E-02
 -1       533 1.94650E+02 6.87000E+01-3.80602E-02
 -1       534 1.83200E+02 9.16000E+01 3.81689E-02
 -1       535 1.83200E+02 9.16000E+01 6.88898E-05
 -1       536 1.83200E+02 9.16000E+01-3.80311E-02
 -1       537 1.83200E+02 8.01500E+01 3.81535E-02
 -1       539 1.83200E+02 8.01500E+01-3.80465E-02
 -1       540 1.94650E+02 9.16000E+01 3.81687E-02
 -1       542 1.94650E+02 9.16000E+01-3.80313E-02
 -1       543 1.83200E+02 1.14500E+02 3.81272E-02
 -1       544 1.83200E+02 1.14500E+02 2.72457E-05
 -1       545 1.83200E+02 1.14500E+02-3.80728E-02
 -1       546 1.83200E+02 1.03050E+02 3.81466E-02
 -1       548 1.83200E+02 1.03050E+02-3.80534E-02
 -1       549 1.94650E+02 1.14500E+02 3.81277E-02
 -1       551 1.94650E+02 1.14500E+02-3.80723E-02
 -1       552 1.83200E+02 1.37400E+02 3.81450E-02
 -1       553 1.83200E+02 1.37400E+02 4.50086E-05
 -1       554 1.83200E+02 1.37400E+02-3.80550E-02
 -1       555 1.83200E+02 1.25950E+02 3.81935E-02
 -1       557 1.83200E+02 1.25950E+02-3.80065E-02
 -1       558 1.94650E+02 1.37400E+02 3.81087E-02
 -1       560 1.94650E+02 1.37400E+02-3.80913E-02
 -1       561 1.83200E+02 1.60300E+02 3.81454E-02
 -1       562 1.83200E+02 1.60300E+02 4.53889E-05
 -1       563 1.83200E+02 1.60300E+02-3.80546E-02
 -1       564 1.83200E+02 1.48850E+02 3.81946E-02
 -1       566 1.83200E+02 1.48850E+02-3.80054E-02
 -1       567 1.94650E+02 1.60300E+02 3.81856E-02
 -1       569 1.94650E+02 1.60300E+02-3.80144E-02
 -1       570 1.83200E+02 1.83200E+02 3.81121E-02
 -1       571 1.83200E+02 1.83200E+02 1.20976E-05
 -1       572 1.83200E+02 1.83200E+02-3.80879E-02
 -1       573 1.83200E+02 1.71750E+02 3.81014E-02
 -1       575 1.83200E+02 1.71750E+02-3.80986E-02
 -1       576 1.94650E+02 1.83200E+02 3.81235E-02
 -1       578 1.94650E+02 1.83200E+02-3.80765E-02
 -1       579 1.83200E+02 2.06100E+02 3.81866E-02
 -1       580 1.83200E+02 2.06100E+02 8.66313E-05
 -1       581 1.83200E+02 2.06100E+02-3.80134E-02
 -1       582 1.83200E+02 1.94650E+02 3.81437E-02
 -1       584 1.83200E+02 1.94650E+02-3.80563E-02
 -1       585 1.94650E+02 2.06100E+02 3.81770E-02
 -1       587 1.94650E+02 2.06100E+02-3.80230E-02
 -1       588 1.83200E+02 2.29000E+02 3.81874E-02
 -1       589 1.83200E+02 2.29000E+02 8.74003E-05
 -1       590 1.83200E+02 2.29000E+02-3.80126E-02
 -1       591 1.83200E+02 2.17550E+02 3.81377E-02
 -1       593 1.83200E+02 2.17550E+02-3.80623E-02
 -1       594 1.94650E+02 2.29000E+02 3.81944E-02
 -1       596 1.94650E+02 2.29000E+02-3.80056E-02
 -1       597 1.60300E+02 1.48058E-07 3.81798E-02
 -1       598 1.60300E+02 0.00000E+00 7.98493E-05
 -1       599 1.60300E+02-1.48058E-07-3.80201E-02
 -1       600 1.60300E+02 2.29000E+01 3.81839E-02
 -1       601 1.60300E+02 2.29000E+01 8.38634E-05
 -1       602 1.60300E+02 2.29000E+01-3.80161E-02
 -1       603 1.71750E+02 4.02694E-08 3.81947E-02
 -1       605 1.71750E+02-4.02694E-08-3.80053E-02
 -1       606 1.60300E+02 1.14500E+01 3.81586E-02
 -1       608 1.60300E+02 1.14500E+01-3.80414E-02
 -1       609 1.71750E+02 2.29000E+01 3.81599E-02
 -1       611 1.71750E+02 2.29000E+01-3.80401E-02
 -1       612 1.60300E+02 4.58000E+01 3.81319E-02
 -1       613 1.60300E+02 4.58000E+01 3.19347E-05
 -1       614 1.60300E+02 4.58000E+01-3.80681E-02
 -1       615 1.60300E+02 3.43500E+01 3.81421E-02
 -1       617 1.60300E+02 3.43500E+01-3.80579E-02
 -1       618 1.71750E+02 4.58000E+01 3.81904E-02
 -1       620 1.71750E+02 4.58000E+01-3.80096E-02
 -1       621 1.60300E+02 6.87000E+01 3.81158E-02
 -1       622 1.60300E+02 6.87000E+01 1.58462E-05
 -1       623 1.60300E+02 6.87000E+01-3.80842E-02
 -1       624 1.60300E+02 5.72500E+01 3.81835E-02
 -1       626 1.60300E+02 5.72500E+01-3.80165E-02
 -1       627 1.71750E+02 6.87000E+01 3.81732E-02
 -1       629 1.71750E+02 6.87000E+01-3.80268E-02
 -1       630 1.60300E+02 9.16000E+01 3.81492E-02
 -1       631 1.60300E+02 9.16000E+01 4.91837E-05
 -1       632 1.60300E+02 9.16000E+01-3.80508E-02
 -1       633 1.60300E+02 8.01500E+01 3.81212E-02
 -1       635 1.60300E+02 8.01500E+01-3.80788E-02
 -1       636 1.71750E+02 9.16000E+01 3.81120E-02
 -1       638 1.71750E+02 9.16000E+01-3.80880E-02
 -1       639 1.60300E+02 1.14500E+02 3.81048E-02
 -1       640 1.60300E+02 1.14500E+02 4.83631E-06
 -1       641 1.60300E+02 1.14500E+02-3.80952E-02
 -1       642 1.60300E+02 1.03050E+02 3.81426E-02
 -1       644 1.60300E+02 1.03050E+02-3.80574E-02
 -1       645 1.71750E+02 1.14500E+02 3.81326E-02
 -1       647 1.71750E+02 1.14500E+02-3.80674E-02
 -1       648 1.60300E+02 1.37400E+02 3.81105E-02
 -1       649 1.60300E+02 1.37400E+02 1.04662E-05
 -1       650 1.60300E+02 1.37400E+02-3.80895E-02
 -1       651 1.60300E+02 1.25950E+02 3.81429E-02
 -1       653 1.60300E+02 1.25950E+02-3.80571E-02
 -1       654 1.71750E+02 1.37400E+02 3.81623E-02
 -1       656 1.71750E+02 1.37400E+02-3.80377E-02
 -1       657 1.60300E+02 1.60300E+02 3.81619E-02
 -1       658 1.60300E+02 1.60300E+02 6.18700E-05
 -1       659 1.60300E+02 1.60300E+02-3.80381E-02
 -1       660 1.60300E+02 1.48850E+02 3.81780E-02
 -1       662 1.60300E+02 1.48850E+02-3.80220E-02
 -1       663 1.71750E+02 1.60300E+02 3.81488E-02
 -1       665 1.71750E+02 1.60300E+02-3.80512E-02
 -1       666 1.60300E+02 1.83200E+02 3.81990E-02
 -1       667 1.60300E+02 1.83200E+02 9.89550E-05
 -1       668 1.60300E+02 1.83200E+02-3.80010E-02
 -1       669 1.60300E+02 1.71750E+02 3.81926E-02
 -1       671 1.60300E+02 1.71750E+02-3.80074E-02
 -1       672 1.71750E+02 1.83200E+02 3.81642E-02
 -1       674 1.71750E+02 1.83200E+02-3.80358E-02
 -1       675 1.60300E+02 2.06100E+02 3.81747E-02
 -1       676 1.60300E+02 2.06100E+02 7.47365E-05
 -1       677 1.60300E+02 2.06100E+02-3.80253E-02
 -1       678 1.60300E+02 1.94650E+02 3.81957E-02
 -1       680 1.60300E+02 1.94650E+02-3.80043E-02
 -1       681 1.71750E+02 2.06100E+02 3.81516E-02
 -1       683 1.71750E+02 2.06100E+02-3.80484E-02
 -1       684 1.60300E+02 2.29000E+02 3.81221E-02
 -1       685 1.60300E+02 2.29000E+02 2.21398E-05
 -1       686 1.60300E+02 2.29000E+02-3.80779E-02
 -1       687 1.60300E+02 2.17550E+02 3.81300E-02
 -1       689 1.60300E+02 2.17550E+02-3.80700E-02
 -1       690 1.71750E+02 2.29000E+02 3.81810E-02
 -1       692 1.71750E+02 2.29000E+02-3.80190E-02
 -1       693 1.37400E+02-1.94638E-07 3.81006E-02
 -1       694 1.37400E+02 0.00000E+00 6.35903E-07
 -1       695 1.37400E+02 1.94638E-07-3.80994E-02
 -1       696 1.37400E+02 2.29000E+01 3.81281E-02
 -1       697 1.37400E+02 2.29000E+01 2.80570E-05
 -1       698 1.37400E+02 2.29000E+01-3.80719E-02
 -1       699 1.48850E+02 8.80313E-08 3.81919E-02
 -1       701 1.48850E+02-8.80313E-08-3.80081E-02
 -1       702 1.37400E+02 1.14500E+01 3.81367E-02
 -1       704 1.37400E+02 1.14500E+01-3.80633E-02
 -1       705 1.48850E+02 2.29000E+01 3.81407E-02
 -1       707 1.48850E+02 2.29000E+01-3.80593E-02
 -1       708 1.37400E+02 4.58000E+01 3.81875E-02
 -1       709 1.37400E+02 4.58000E+01 8.74503E-05
 -1       710 1.37400E+02 4.58000E+01-3.80125E-02
 -1       711 1.37400E+02 3.43500E+01 3.81952E-02
 -1       713 1.37400E+02 3.43500E+01-3.80048E-02
 -1       714 1.48850E+02 4.58000E+01 3.81990E-02
 -1       716 1.48850E+02 4.58000E+01-3.80010E-02
 -1       717 1.37400E+02 6.87000E+01 3.81150E-02
 -1       718 1.37400E+02 6.87000E+01 1.50404E-05
 -1       719 1.37400E+02 6.87000E+01-3.80850E-02
 -1       720 1.37400E+02 5.72500E+01 3.81548E-02
 -1       722 1.37400E+02 5.72500E+01-3.80452E-02
 -1       723 1.48850E+02 6.87000E+01 3.81237E-02
 -1       725 1.48850E+02 6.87000E+01-3.80763E-02
 -1       726 1.37400E+02 9.16000E+01 3.81772E-02
 -1       727 1.37400E+02 9.16000E+01 7.71846E-05
 -1       728 1.37400E+02 9.16000E+01-3.80228E-02
 -1       729 1.37400E+02 8.01500E+01 3.81459E-02
 -1       731 1.37400E+02 8.01500E+01-3.80541E-02
 -1       732 1.48850E+02 9.16000E+01 3.81731E-02
 -1       734 1.48850E+02 9.16000E+01-3.80269E-02
 -1       735 1.37400E+02 1.14500E+02 3.81197E-02
 -1       736 1.37400E+02 1.14500E+02 1.97155E-05
 -1       737 1.37400E+02 1.14500E+02-3.80803E-02
 -1       738 1.37400E+02 1.03050E+02 3.81474E-02
 -1       740 1.37400E+02 1.03050E+02-3.80526E-02
 -1       741 1.48850E+02 1.14500E+02 3.81924E-02
 -1       743 1.48850E+02 1.14500E+02-3.80076E-02
 -1       744 1.37400E+02 1.37400E+02 3.81859E-02
 -1       745 1.37400E+02 1.37400E+02 8.58866E-05
 -1       746 1.37400E+02 1.37400E+02-3.80141E-02
 -1       747 1.37400E+02 1.25950E+02 3.81946E-02
 -1       749 1.37400E+02 1.25950E+02-3.80054E-02
 -1       750 1.48850E+02 1.37400E+02 3.81400E-02
 -1       752 1.48850E+02 1.37400E+02-3.80600E-02
 -1       753 1.37400E+02 1.60300E+02 3.81345E-02
 -1       754 1.37400E+02 1.60300E+02 3.45312E-05
 -1       755 1.37400E+02 1.60300E+02-3.80655E-02
 -1       756 1.37400E+02 1.48850E+02 3.81201E-02
 -1       758 1.37400E+02 1.48850E+02-3.80799E-02
 -1       759 1.48850E+02 1.60300E+02 3.81322E-02
 -1       761 1.48850E+02 1.60300E+02-3.80678E-02
 -1       762 1.37400E+02 1.83200E+02 3.81336E-02
 -1       763 1.37400E+02 1.83200E+02 3.36171E-05
 -1       764 1.37400E+02 1.83200E+02-3.80664E-02
 -1       765 1.37400E+02 1.71750E+02 3.81571E-02
 -1       767 1.37400E+02 1.71750E+02-3.80429E-02
 -1       768 1.48850E+02 1.83200E+02 3.81437E-02
 -1       770 1.48850E+02 1.83200E+02-3.80563E-02
 -1       771 1.37400E+02 2.06100E+02 3.81874E-02
 -1       772 1.37400E+02 2.06100E+02 8.74390E-05
 -1       773 1.37400E+02 2.06100E+02-3.80126E-02
 -1       774 1.37400E+02 1.94650E+02 3.81644E-02
 -1       776 1.37400E+02 1.94650E+02-3.80356E-02
 -1       777 1.48850E+02 2.06100E+02 3.81518E-02
 -1       779 1.48850E+02 2.06100E+02-3.80482E-02
 -1       780 1.37400E+02 2.29000E+02 3.81895E-02
 -1       781 1.37400E+02 2.29000E+02 8.94874E-05
 -1       782 1.37400E+02 2.29000E+02-3.80105E-02
 -1       783 1.37400E+02 2.17550E+02 3.81839E-02
 -1       785 1.37400E+02 2.17550E+02-3.80161E-02
 -1       786 1.48850E+02 2.29000E+02 3.81638E-02
 -1       788 1.48850E+02 2.29000E+02-3.80362E-02
 -1       789 1.14500E+02-9.66349E-08 3.81476E-02
 -1       790 1.14500E+02 0.00000E+00 4.76329E-05
 -1       791 1.14500E+02 9.66349E-08-3.80524E-02
 -1       792 1.14500E+02 2.29000E+01 3.81423E-02
 -1       793 1.14500E+02 2.29000E+01 4.22985E-05
 -1       794 1.14500E+02 2.29000E+01-3.80577E-02
 -1       795 1.25950E+02-2.80081E-07 3.81009E-02
 -1       797 1.25950E+02 2.80081E-07-3.80991E-02
 -1       798 1.14500E+02 1.14500E+01 3.81608E-02
 -1       800 1.14500E+02 1.14500E+01-3.80392E-02
 -1       801 1.25950E+02 2.29000E+01 3.81928E-02
 -1       803 1.25950E+02 2.29000E+01-3.80072E-02
 -1       804 1.14500E+02 4.58000E+01 3.81349E-02
 -1       805 1.14500E+02 4.58000E+01 3.48708E-05
 -1       806 1.14500E+02 4.58000E+01-3.80651E-02
 -1       807 1.14500E+02 3.43500E+01 3.81253E-02
 -1       809 1.14500E+02 3.43500E+01-3.80747E-02
 -1       810 1.25950E+02 4.58000E+01 3.81411E-02
 -1       812 1.25950E+02 4.58000E+01-3.80589E-02
 -1       813 1.14500E+02 6.87000E+01 3.81246E-02
 -1       814 1.14500E+02 6.87000E+01 2.46436E-05
 -1       815 1.14500E+02 6.87000E+01-3.80754E-02
 -1       816 1.14500E+02 5.72500E+01 3.81978E-02
 -1       818 1.14500E+02 5.72500E+01-3.80022E-02
 -1       819 1.25950E+02 6.87000E+01 3.81470E-02
 -1       821 1.25950E+02 6.87000E+01-3.80530E-02
 -1       822 1.14500E+02 9.16000E+01 3.81682E-02
 -1       823 1.14500E+02 9.16000E+01 6.82345E-05
 -1       824 1.14500E+02 9.16000E+01-3.80318E-02
 -1       825 1.14500E+02 8.01500E+01 3.81802E-02
 -1       827 1.14500E+02 8.01500E+01-3.80198E-02
 -1       828 1.25950E+02 9.16000E+01 3.81850E-02
 -1       830 1.25950E+02 9.16000E+01-3.80150E-02
 -1       831 1.14500E+02 1.14500E+02 3.81276E-02
 -1       832 1.14500E+02 1.14500E+02 2.76486E-05
 -1       833 1.14500E+02 1.14500E+02-3.80724E-02
 -1       834 1.14500E+02 1.03050E+02 3.81602E-02
 -1       836 1.14500E+02 1.03050E+02-3.80398E-02
 -1       837 1.25950E+02 1.14500E+02 3.81707E-02
 -1       839 1.25950E+02 1.14500E+02-3.80293E-02
 -1       840 1.14500E+02 1.37400E+02 3.81136E-02
 -1       841 1.14500E+02 1.37400E+02 1.35846E-05
 -1       842 1.14500E+02 1.37400E+02-3.80864E-02
 -1       843 1.14500E+02 1.25950E+02 3.81759E-02
 -1       845 1.14500E+02 1.25950E+02-3.80241E-02
 -1       846 1.25950E+02 1.37400E+02 3.81378E-02
 -1       848 1.25950E+02 1.37400E+02-3.80622E-02
 -1       849 1.14500E+02 1.60300E+02 3.81158E-02
 -1       850 1.14500E+02 1.60300E+02 1.57691E-05
 -1       851 1.14500E+02 1.60300E+02-3.80842E-02
 -1       852 1.14500E+02 1.48850E+02 3.81646E-02
 -1       854 1.14500E+02 1.48850E+02-3.80354E-02
 -1       855 1.25950E+02 1.60300E+02 3.81635E-02
 -1       857 1.25950E+02 1.60300E+02-3.80365E-02
 -1       858 1.14500E+02 1.83200E+02 3.81561E-02
 -1       859 1.14500E+02 1.83200E+02 5.61124E-05
 -1       860 1.14500E+02 1.83200E+02-3.80439E-02
 -1       861 1.14500E+02 1.71750E+02 3.81203E-02
 -1       863 1.14500E+02 1.71750E+02-3.80797E-02
 -1       864 1.25950E+02 1.83200E+02 3.81951E-02
 -1       866 1.25950E+02 1.83200E+02-3.80049E-02
 -1       867 1.14500E+02 2.06100E+02 3.81907E-02
 -1       868 1.14500E+02 2.06100E+02 9.07232E-05
 -1       869 1.14500E+02 2.06100E+02-3.80093E-02
 -1       870 1.14500E+02 1.94650E+02 3.81423E-02
 -1       872 1.14500E+02 1.94650E+02-3.80577E-02
 -1       873 1.25950E+02 2.06100E+02 3.81645E-02
 -1       875 1.25950E+02 2.06100E+02-3.80355E-02
 -1       876 1.14500E+02 2.29000E+02 3.81944E-02
 -1       877 1.14500E+02 2.29000E+02 9.44228E-05
 -1       878 1.14500E+02 2.29000E+02-3.80056E-02
 -1       879 1.14500E+02 2.17550E+02 3.81754E-02
 -1       881 1.14500E+02 2.17550E+02-3.80246E-02
 -1       882 1.25950E+02 2.29000E+02 3.81761E-02
 -1       884 1.25950E+02 2.29000E+02-3.80239E-02
 -1       885 9.16000E+01-3.08801E-07 3.81041E-02
 -1       886 9.16000E+01 0.00000E+00 4.13186E-06
 -1       887 9.16000E+01 3.08801E-07-3.80959E-02
 -1       888 9.16000E+01 2.29000E+01 3.81960E-02
 -1       889 9.16000E+01 2.29000E+01 9.60491E-05
 -1       890 9.16000E+01 2.29000E+01-3.80040E-02
 -1       891 1.03050E+02-1.77569E-07 3.81328E-02
 -1       893 1.03050E+02 1.77569E-07-3.80672E-02
 -1       894 9.16000E+01 1.14500E+01 3.81735E-02
 -1       896 9.16000E+01 1.14500E+01-3.80265E-02
 -1       897 1.03050E+02 2.29000E+01 3.81610E-02
 -1       899 1.03050E+02 2.29000E+01-3.80390E-02
 -1       900 9.16000E+01 4.58000E+01 3.81562E-02
 -1       901 9.16000E+01 4.58000E+01 5.61885E-05
 -1       902 9.16000E+01 4.58000E+01-3.80438E-02
 -1       903 9.16000E+01 3.43500E+01 3.81552E-02
 -1       905 9.16000E+01 3.43500E+01-3.80448E-02
 -1       906 1.03050E+02 4.58000E+01 3.81703E-02
 -1       908 1.03050E+02 4.58000E+01-3.80297E-02
 -1       909 9.16000E+01 6.87000E+01 3.81251E-02
 -1       910 9.16000E+01 6.87000E+01 2.50886E-05
 -1       911 9.16000E+01 6.87000E+01-3.80749E-02
 -1       912 9.16000E+01 5.72500E+01 3.81488E-02
 -1       914 9.16000E+01 5.72500E+01-3.80512E-02
 -1       915 1.03050E+02 6.87000E+01 3.81260E-02
 -1       917 1.03050E+02 6.87000E+01-3.80740E-02
 -1       918 9.16000E+01 9.16000E+01 3.81719E-02
 -1       919 9.16000E+01 9.16000E+01 7.18632E-05
 -1       920 9.16000E+01 9.16000E+01-3.80281E-02
 -1       921 9.16000E+01 8.01500E+01 3.81450E-02
 -1       923 9.16000E+01 8.01500E+01-3.80550E-02
 -1       924 1.03050E+02 9.16000E+01 3.81647E-02
 -1       926 1.03050E+02 9.16000E+01-3.80353E-02
 -1       927 9.16000E+01 1.14500E+02 3.81121E-02
 -1       928 9.16000E+01 1.14500E+02 1.20721E-05
 -1       929 9.16000E+01 1.14500E+02-3.80879E-02
 -1       930 9.16000E+01 1.03050E+02 3.81045E-02
 -1       932 9.16000E+01 1.03050E+02-3.80955E-02
 -1       933 1.03050E+02 1.14500E+02 3.81903E-02
 -1       935 1.03050E+02 1.14500E+02-3.80097E-02
 -1       936 9.16000E+01 1.37400E+02 3.81849E-02
 -1       937 9.16000E+01 1.37400E+02 8.49180E-05
 -1       938 9.16000E+01 1.37400E+02-3.80151E-02
 -1       939 9.16000E+01 1.25950E+02 3.81249E-02
 -1       941 9.16000E+01 1.25950E+02-3.80751E-02
 -1       942 1.03050E+02 1.37400E+02 3.81594E-02
 -1       944 1.03050E+02 1.37400E+02-3.80406E-02
 -1       945 9.16000E+01 1.60300E+02 3.81795E-02
 -1       946 9.16000E+01 1.60300E+02 7.95210E-05
 -1       947 9.16000E+01 1.60300E+02-3.80205E-02
 -1       948 9.16000E+01 1.48850E+02 3.81117E-02
 -1       950 9.16000E+01 1.48850E+02-3.80883E-02
 -1       951 1.03050E+02 1.60300E+02 3.81453E-02
 -1       953 1.03050E+02 1.60300E+02-3.80547E-02
 -1       954 9.16000E+01 1.83200E+02 3.81024E-02
 -1       955 9.16000E+01 1.83200E+02 2.40753E-06
 -1       956 9.16000E+01 1.83200E+02-3.80976E-02
 -1       957 9.16000E+01 1.71750E+02 3.81461E-02
 -1       959 9.16000E+01 1.71750E+02-3.80539E-02
 -1       960 1.03050E+02 1.83200E+02 3.81335E-02
 -1       962 1.03050E+02 1.83200E+02-3.80665E-02
 -1       963 9.16000E+01 2.06100E+02 3.81979E-02
 -1       964 9.16000E+01 2.06100E+02 9.79403E-05
 -1       965 9.16000E+01 2.06100E+02-3.80021E-02
 -1       966 9.16000E+01 1.94650E+02 3.81497E-02
 -1       968 9.16000E+01 1.94650E+02-3.80503E-02
 -1       969 1.03050E+02 2.06100E+02 3.81392E-02
 -1       971 1.03050E+02 2.06100E+02-3.80608E-02
 -1       972 9.16000E+01 2.29000E+02 3.81231E-02
 -1       973 9.16000E+01 2.29000E+02 2.31420E-05
 -1       974 9.16000E+01 2.29000E+02-3.80769E-02
 -1       975 9.16000E+01 2.17550E+02 3.81869E-02
 -1       977 9.16000E+01 2.17550E+02-3.80131E-02
 -1       978 1.03050E+02 2.29000E+02 3.81345E-02
 -1       980 1.03050E+02 2.29000E+02-3.80655E-02
 -1       981 6.87000E+01 3.04451E-07 3.81768E-02
 -1       982 6.87000E+01 0.00000E+00 7.68428E-05
 -1       983 6.87000E+01-3.04451E-07-3.80232E-02
 -1       984 6.87000E+01 2.29000E+01 3.81777E-02
 -1       985 6.87000E+01 2.29000E+01 7.77465E-05
 -1       986 6.87000E+01 2.29000E+01-3.80223E-02
 -1       987 8.01500E+01 2.90791E-08 3.81386E-02
 -1       989 8.01500E+01-2.90791E-08-3.80614E-02
 -1       990 6.87000E+01 1.14500E+01 3.81313E-02
 -1       992 6.87000E+01 1.14500E+01-3.80687E-02
 -1       993 8.01500E+01 2.29000E+01 3.81662E-02
 -1       995 8.01500E+01 2.29000E+01-3.80338E-02
 -1       996 6.87000E+01 4.58000E+01 3.81915E-02
 -1       997 6.87000E+01 4.58000E+01 9.14734E-05
 -1       998 6.87000E+01 4.58000E+01-3.80085E-02
 -1       999 6.87000E+01 3.43500E+01 3.81326E-02
 -1      1001 6.87000E+01 3.43500E+01-3.80674E-02
 -1      1002 8.01500E+01 4.58000E+01 3.81572E-02
 -1      1004 8.01500E+01 4.58000E+01-3.80428E-02
 -1      1005 6.87000E+01 6.87000E+01 3.81551E-02
 -1      1006 6.87000E+01 6.87000E+01 5.50825E-05
 -1      1007 6.87000E+01 6.87000E+01-3.80449E-02
 -1      1008 6.87000E+01 5.72500E+01 3.81021E-02
 -1      1010 6.87000E+01 5.72500E+01-3.80979E-02
 -1      1011 8.01500E+01 6.87000E+01 3.81703E-02
 -1      1013 8.01500E+01 6.87000E+01-3.80297E-02
 -1      1014 6.87000E+01 9.16000E+01 3.81505E-02
 -1      1015 6.87000E+01 9.16000E+01 5.05481E-05
 -1      1016 6.87000E+01 9.16000E+01-3.80495E-02
 -1      1017 6.87000E+01 8.01500E+01 3.81356E-02
 -1      1019 6.87000E+01 8.01500E+01-3.80644E-02
 -1      1020 8.01500E+01 9.16000E+01 3.81632E-02
 -1      1022 8.01500E+01 9.16000E+01-3.80368E-02
 -1      1023 6.87000E+01 1.14500E+02 3.81235E-02
 -1      1024 6.87000E+01 1.14500E+02 2.34695E-05
 -1      1025 6.87000E+01 1.14500E+02-3.80765E-02
 -1      1026 6.87000E+01 1.03050E+02 3.81942E-02
 -1      1028 6.87000E+01 1.03050E+02-3.80058E-02
 -1      1029 8.01500E+01 1.14500E+02 3.81077E-02
 -1      1031 8.01500E+01 1.14500E+02-3.80923E-02
 -1      1032 6.87000E+01 1.37400E+02 3.81836E-02
 -1      1033 6.87000E+01 1.37400E+02 8.36466E-05
 -1      1034 6.87000E+01 1.37400E+02-3.80164E-02
 -1      1035 6.87000E+01 1.25950E+02 3.81214E-02
 -1      1037 6.87000E+01 1.25950E+02-3.80786E-02
 -1      1038 8.01500E+01 1.37400E+02 3.81372E-02
 -1      1040 8.01500E+01 1.37400E+02-3.80628E-02
 -1      1041 6.87000E+01 1.60300E+02 3.81018E-02
 -1      1042 6.87000E+01 1.60300E+02 1.75735E-06
 -1      1043 6.87000E+01 1.60300E+02-3.80982E-02
 -1      1044 6.87000E+01 1.48850E+02 3.81653E-02
 -1      1046 6.87000E+01 1.48850E+02-3.80347E-02
 -1      1047 8.01500E+01 1.60300E+02 3.81214E-02
 -1      1049 8.01500E+01 1.60300E+02-3.80786E-02
 -1      1050 6.87000E+01 1.83200E+02 3.81417E-02
 -1      1051 6.87000E+01 1.83200E+02 4.17268E-05
 -1      1052 6.87000E+01 1.83200E+02-3.80583E-02
 -1      1053 6.87000E+01 1.71750E+02 3.81368E-02
 -1      1055 6.87000E+01 1.71750E+02-3.80632E-02
 -1      1056 8.01500E+01 1.83200E+02 3.81275E-02
 -1      1058 8.01500E+01 1.83200E+02-3.80725E-02
 -1      1059 6.87000E+01 2.06100E+02 3.81698E-02
 -1      1060 6.87000E+01 2.06100E+02 6.98362E-05
 -1      1061 6.87000E+01 2.06100E+02-3.80302E-02
 -1      1062 6.87000E+01 1.94650E+02 3.81343E-02
 -1      1064 6.87000E+01 1.94650E+02-3.80657E-02
 -1      1065 8.01500E+01 2.06100E+02 3.81287E-02
 -1      1067 8.01500E+01 2.06100E+02-3.80713E-02
 -1      1068 6.87000E+01 2.29000E+02 3.81042E-02
 -1      1069 6.87000E+01 2.29000E+02 4.15765E-06
 -1      1070 6.87000E+01 2.29000E+02-3.80958E-02
 -1      1071 6.87000E+01 2.17550E+02 3.81802E-02
 -1      1073 6.87000E+01 2.17550E+02-3.80198E-02
 -1      1074 8.01500E+01 2.29000E+02 3.81844E-02
 -1      1076 8.01500E+01 2.29000E+02-3.80156E-02
 -1      1077 4.58000E+01 1.06047E-07 3.81804E-02
 -1      1078 4.58000E+01 0.00000E+00 8.04135E-05
 -1      1079 4.58000E+01-1.06047E-07-3.80196E-02
 -1      1080 4.58000E+01 2.29000E+01 3.81132E-02
 -1      1081 4.58000E+01 2.29000E+01 1.32005E-05
 -1      1082 4.58000E+01 2.29000E+01-3.80868E-02
 -1      1083 5.72500E+01 2.87928E-07 3.81867E-02
 -1      1085 5.72500E+01-2.87928E-07-3.80133E-02