
 displacements (vx,vy,vz) for set NALL and time  0.1000000E+01

         1  9.132953E-06  0.000000E+00  0.000000E+00
         2  9.132953E-06  8.000000E-02  5.000000E+02
         3  9.132953E-06  0.000000E+00  0.000000E+00
         4  9.132953E-06  6.474931E-02  5.000000E+02
         5  9.132953E-06  0.000000E+00  0.000000E+00
         6  9.132953E-06  3.763257E-02  5.000000E+02
         7  9.132953E-06  0.000000E+00  0.000000E+00

 temperatures for set NALL and time  0.1000000E+01

         1  0.000000E+00
         2  5.000000E+02
         3  0.000000E+00
         4  5.000000E+02
         5  0.000000E+00
         6  5.000000E+02
         7  0.000000E+00
