
 displacements (vx,vy,vz) for set NALL and time  0.1000000E-02

         1  4.709847E-11  0.000000E+00 -1.000000E-02
         2  4.715198E-11  0.000000E+00 -1.000000E-02
         3  4.693342E-11  0.000000E+00 -1.000000E-02
         4  4.663975E-11  0.000000E+00 -1.000000E-02
         5  4.618200E-11  0.000000E+00 -1.000000E-02
         6  4.549677E-11  0.000000E+00 -1.000000E-02
         7  4.447698E-11  0.000000E+00 -1.000000E-02
         8  4.295107E-11  0.000000E+00 -1.000000E-02
         9  4.065641E-11  0.000000E+00 -1.000000E-02
        10  3.720867E-11  0.000000E+00 -1.000000E-02
        11  3.207002E-11  0.000000E+00 -1.000000E-02
        12  2.452121E-11  0.000000E+00 -1.000000E-02
        13  1.364686E-11  0.000000E+00 -1.000000E-02
        14 -1.664852E-12  0.000000E+00 -1.000000E-02
        15 -2.265692E-11  0.000000E+00 -1.000000E-02
        16 -5.073219E-11  0.000000E+00 -1.000000E-02
        17 -8.886361E-11  0.000000E+00 -1.000000E-02
        18 -1.376238E-10  0.000000E+00 -1.000000E-02
        19 -1.873279E-10  0.000000E+00 -1.000000E-02
        20 -3.797877E-10  0.000000E+00 -1.000000E-02
        21 -1.061649E-09  0.000000E+00 -1.000000E-02
        22  2.473754E-09  0.000000E+00 -9.999993E-03
        23  3.337661E-09  0.000000E+00 -9.999990E-03
        24  4.035156E-09  0.000000E+00 -9.999988E-03
        25  4.732484E-09  0.000000E+00 -9.999987E-03
        26  5.425387E-09  0.000000E+00 -9.999985E-03
        27  6.121316E-09  0.000000E+00 -9.999984E-03
        28  6.818284E-09  0.000000E+00 -9.999982E-03
        29  7.514461E-09  0.000000E+00 -9.999980E-03
        30  8.206232E-09  0.000000E+00 -9.999977E-03
        31  8.890949E-09  0.000000E+00 -9.999974E-03
        32  9.542111E-09  0.000000E+00 -9.999971E-03
        33  1.012072E-08  0.000000E+00 -9.999965E-03
        34  9.575625E-09  0.000000E+00 -9.999957E-03
        35  5.318584E-09  0.000000E+00 -9.999932E-03
        36  3.475657E-09  0.000000E+00 -9.999960E-03
        37  3.973816E-09  0.000000E+00 -9.999967E-03
        38  5.755843E-09  0.000000E+00 -9.999972E-03
        39  7.311208E-09  0.000000E+00 -9.999974E-03
        40  8.613879E-09  0.000000E+00 -9.999976E-03
        41  9.620361E-09  0.000000E+00 -9.999977E-03
        42  1.032752E-08  0.000000E+00 -9.999978E-03
        43  1.073242E-08  0.000000E+00 -9.999979E-03
        44  1.084229E-08  0.000000E+00 -9.999979E-03
        45  1.071880E-08  0.000000E+00 -9.999980E-03
        46  1.046905E-08  0.000000E+00 -9.999981E-03
        47  1.016927E-08  0.000000E+00 -9.999982E-03
        48  9.863964E-09  0.000000E+00 -9.999984E-03
        49  9.576632E-09  0.000000E+00 -9.999985E-03
        50  9.318815E-09  0.000000E+00 -9.999987E-03
        51  9.095308E-09  0.000000E+00 -9.999988E-03
        52  8.907126E-09  0.000000E+00 -9.999990E-03
        53  8.753521E-09  0.000000E+00 -9.999992E-03
        54  8.632864E-09  0.000000E+00 -9.999993E-03
        55  8.540676E-09  0.000000E+00 -9.999995E-03
        56  8.476688E-09  0.000000E+00 -9.999997E-03
        57  8.439150E-09  0.000000E+00 -9.999998E-03
        58  8.426702E-09  0.000000E+00 -1.000000E-02
        59  7.899335E-09  0.000000E+00 -1.000000E-02
        60  7.375760E-09  0.000000E+00 -1.000000E-02
        61  6.854176E-09  0.000000E+00 -1.000000E-02
        62  6.333174E-09  0.000000E+00 -1.000000E-02
        63  5.812231E-09  0.000000E+00 -1.000000E-02
        64  5.291955E-09  0.000000E+00 -1.000000E-02
        65  4.774044E-09  0.000000E+00 -1.000000E-02
        66  4.261423E-09  0.000000E+00 -1.000000E-02
        67  3.757785E-09  0.000000E+00 -1.000000E-02
        68  3.267261E-09  0.000000E+00 -1.000000E-02
        69  2.794030E-09  0.000000E+00 -1.000000E-02
        70  2.342023E-09  0.000000E+00 -1.000000E-02
        71  1.914685E-09  0.000000E+00 -1.000000E-02
        72  1.514890E-09  0.000000E+00 -1.000000E-02
        73  1.145067E-09  0.000000E+00 -1.000000E-02
        74  8.075110E-10  0.000000E+00 -1.000000E-02
        75  5.055207E-10  0.000000E+00 -1.000000E-02
        76  2.442344E-10  0.000000E+00 -1.000000E-02
        77  3.961184E-11  0.000000E+00 -1.000000E-02
        78  8.077437E-09  0.000000E+00 -9.999993E-03
        79  7.994197E-09  0.000000E+00 -9.999995E-03
        80  3.924749E-11  0.000000E+00 -9.999999E-03
        81  3.813223E-11  0.000000E+00 -9.999999E-03
        82  3.620565E-11  0.000000E+00 -9.999998E-03
        83  3.338840E-11  0.000000E+00 -9.999998E-03
        84  2.961858E-11  0.000000E+00 -9.999997E-03
        85  2.490940E-11  0.000000E+00 -9.999997E-03
        86  1.943459E-11  0.000000E+00 -9.999996E-03
        87  1.364719E-11  0.000000E+00 -9.999996E-03
        88  8.431784E-12  0.000000E+00 -9.999995E-03
        89  5.281660E-12  0.000000E+00 -9.999995E-03
        90  6.475670E-12  0.000000E+00 -9.999995E-03
        91  1.521112E-11  0.000000E+00 -9.999995E-03
        92  3.563277E-11  0.000000E+00 -9.999994E-03
        93  7.273837E-11  0.000000E+00 -9.999994E-03
        94  1.320839E-10  0.000000E+00 -9.999994E-03
        95  2.202956E-10  0.000000E+00 -9.999994E-03
        96  3.440123E-10  0.000000E+00 -9.999994E-03
        97  5.364893E-10  0.000000E+00 -9.999994E-03
        98  8.045088E-10  0.000000E+00 -9.999994E-03
        99  1.857379E-09  0.000000E+00 -9.999991E-03
       100  2.666016E-09  0.000000E+00 -9.999989E-03
       101  3.357604E-09  0.000000E+00 -9.999987E-03
       102  3.970050E-09  0.000000E+00 -9.999986E-03
       103  4.520057E-09  0.000000E+00 -9.999984E-03
       104  5.005307E-09  0.000000E+00 -9.999982E-03
       105  5.409048E-09  0.000000E+00 -9.999980E-03
       106  5.694400E-09  0.000000E+00 -9.999978E-03
       107  5.787229E-09  0.000000E+00 -9.999975E-03
       108  5.535220E-09  0.000000E+00 -9.999971E-03
       109  4.661588E-09  0.000000E+00 -9.999966E-03
       110  2.942824E-09  0.000000E+00 -9.999957E-03
       111  5.825736E-09  0.000000E+00 -9.999950E-03
       112  9.561004E-09  0.000000E+00 -9.999957E-03
       113  9.069667E-09  0.000000E+00 -9.999965E-03
       114  9.039823E-09  0.000000E+00 -9.999970E-03
       115  9.399820E-09  0.000000E+00 -9.999973E-03
       116  9.857353E-09  0.000000E+00 -9.999975E-03
       117  1.028095E-08  0.000000E+00 -9.999976E-03
       118  1.058875E-08  0.000000E+00 -9.999977E-03
       119  1.072994E-08  0.000000E+00 -9.999978E-03
       120  1.068375E-08  0.000000E+00 -9.999979E-03
       121  1.047406E-08  0.000000E+00 -9.999980E-03
       122  1.016754E-08  0.000000E+00 -9.999981E-03
       123  9.824662E-09  0.000000E+00 -9.999983E-03
       124  9.484526E-09  0.000000E+00 -9.999984E-03
       125  9.169581E-09  0.000000E+00 -9.999985E-03
       126  8.889335E-09  0.000000E+00 -9.999987E-03
       127  8.644831E-09  0.000000E+00 -9.999989E-03
       128  8.431742E-09  0.000000E+00 -9.999990E-03
       129  8.243776E-09  0.000000E+00 -9.999992E-03
       130  7.940019E-09  0.000000E+00 -9.999997E-03
       131  7.907865E-09  0.000000E+00 -9.999998E-03
       132  7.383534E-09  0.000000E+00 -9.999998E-03
       133  6.867918E-09  0.000000E+00 -9.999998E-03
       134  6.348990E-09  0.000000E+00 -9.999998E-03
       135  5.829870E-09  0.000000E+00 -9.999998E-03
       136  5.307747E-09  0.000000E+00 -9.999998E-03
       137  4.786419E-09  0.000000E+00 -9.999998E-03
       138  4.269957E-09  0.000000E+00 -9.999999E-03
       139  3.762847E-09  0.000000E+00 -9.999999E-03
       140  3.269456E-09  0.000000E+00 -9.999999E-03
       141  2.794021E-09  0.000000E+00 -9.999999E-03
       142  2.340429E-09  0.000000E+00 -9.999999E-03
       143  1.912084E-09  0.000000E+00 -9.999999E-03
       144  1.511809E-09  0.000000E+00 -9.999999E-03
       145  1.141981E-09  0.000000E+00 -9.999999E-03
       146  8.048099E-10  0.000000E+00 -9.999999E-03
       147  5.034938E-10  0.000000E+00 -9.999999E-03
       148  2.430404E-10  0.000000E+00 -9.999999E-03
       149  7.453338E-09  0.000000E+00 -9.999994E-03
       150  7.455964E-09  0.000000E+00 -9.999995E-03
       151  2.393793E-10  0.000000E+00 -9.999998E-03
       152  2.330280E-10  0.000000E+00 -9.999998E-03
       153  2.236621E-10  0.000000E+00 -9.999997E-03
       154  2.109378E-10  0.000000E+00 -9.999996E-03
       155  1.946242E-10  0.000000E+00 -9.999996E-03
       156  1.748060E-10  0.000000E+00 -9.999995E-03
       157  1.521722E-10  0.000000E+00 -9.999994E-03
       158  1.283980E-10  0.000000E+00 -9.999994E-03
       159  1.066063E-10  0.000000E+00 -9.999993E-03
       160  9.185486E-11  0.000000E+00 -9.999993E-03
       161  9.154399E-11  0.000000E+00 -9.999993E-03
       162  1.155977E-10  0.000000E+00 -9.999992E-03
       163  1.762796E-10  0.000000E+00 -9.999992E-03
       164  2.877925E-10  0.000000E+00 -9.999992E-03
       165  4.659740E-10  0.000000E+00 -9.999992E-03
       166  7.338178E-10  0.000000E+00 -9.999992E-03
       167  1.129372E-09  0.000000E+00 -9.999992E-03
       168  7.415341E-09  0.000000E+00 -9.999997E-03
       169  1.745412E-09  0.000000E+00 -9.999990E-03
       170  2.295498E-09  0.000000E+00 -9.999988E-03
       171  2.770454E-09  0.000000E+00 -9.999986E-03
       172  3.166920E-09  0.000000E+00 -9.999985E-03
       173  3.474309E-09  0.000000E+00 -9.999983E-03
       174  3.671977E-09  0.000000E+00 -9.999981E-03
       175  3.726992E-09  0.000000E+00 -9.999978E-03
       176  3.596477E-09  0.000000E+00 -9.999975E-03
       177  3.268713E-09  0.000000E+00 -9.999971E-03
       178  2.919364E-09  0.000000E+00 -9.999967E-03
       179  3.846015E-09  0.000000E+00 -9.999962E-03
       180  6.029404E-09  0.000000E+00 -9.999959E-03
       181  8.281125E-09  0.000000E+00 -9.999961E-03
       182  9.637453E-09  0.000000E+00 -9.999965E-03
       183  9.957297E-09  0.000000E+00 -9.999969E-03
       184  1.013114E-08  0.000000E+00 -9.999971E-03
       185  1.030113E-08  0.000000E+00 -9.999974E-03
       186  1.045283E-08  0.000000E+00 -9.999975E-03
       187  1.054275E-08  0.000000E+00 -9.999976E-03
       188  1.052719E-08  0.000000E+00 -9.999978E-03
       189  1.038519E-08  0.000000E+00 -9.999979E-03
       190  1.012842E-08  0.000000E+00 -9.999980E-03
       191  9.795099E-09  0.000000E+00 -9.999981E-03
       192  9.430343E-09  0.000000E+00 -9.999983E-03
       193  9.070753E-09  0.000000E+00 -9.999984E-03
       194  8.738664E-09  0.000000E+00 -9.999986E-03
       195  8.443640E-09  0.000000E+00 -9.999987E-03
       196  8.185703E-09  0.000000E+00 -9.999989E-03
       197  7.957712E-09  0.000000E+00 -9.999990E-03
       198  7.743265E-09  0.000000E+00 -9.999992E-03
       199  6.908844E-09  0.000000E+00 -9.999997E-03
       200  6.400032E-09  0.000000E+00 -9.999997E-03
       201  5.881716E-09  0.000000E+00 -9.999997E-03
       202  5.346578E-09  0.000000E+00 -9.999997E-03
       203  4.814315E-09  0.000000E+00 -9.999997E-03
       204  4.289040E-09  0.000000E+00 -9.999997E-03
       205  3.774160E-09  0.000000E+00 -9.999997E-03
       206  3.273946E-09  0.000000E+00 -9.999997E-03
       207  2.792820E-09  0.000000E+00 -9.999997E-03
       208  2.334919E-09  0.000000E+00 -9.999997E-03
       209  1.903766E-09  0.000000E+00 -9.999998E-03
       210  1.502191E-09  0.000000E+00 -9.999998E-03
       211  1.132437E-09  0.000000E+00 -9.999998E-03
       212  7.965008E-10  0.000000E+00 -9.999998E-03
       213  4.972691E-10  0.000000E+00 -9.999998E-03
       214  7.059668E-09  0.000000E+00 -9.999994E-03
       215  6.987990E-09  0.000000E+00 -9.999996E-03
       216  4.864358E-10  0.000000E+00 -9.999997E-03
       217  4.703790E-10  0.000000E+00 -9.999996E-03
       218  4.483990E-10  0.000000E+00 -9.999996E-03
       219  4.199118E-10  0.000000E+00 -9.999995E-03
       220  3.847571E-10  0.000000E+00 -9.999994E-03
       221  3.436554E-10  0.000000E+00 -9.999993E-03
       222  2.988250E-10  0.000000E+00 -9.999993E-03
       223  2.547612E-10  0.000000E+00 -9.999992E-03
       224  2.191075E-10  0.000000E+00 -9.999992E-03
       225  2.034654E-10  0.000000E+00 -9.999991E-03
       226  2.238978E-10  0.000000E+00 -9.999991E-03
       227  3.008968E-10  0.000000E+00 -9.999991E-03
       228  4.586892E-10  0.000000E+00 -9.999990E-03
       229  7.251212E-10  0.000000E+00 -9.999990E-03
       230  1.133661E-09  0.000000E+00 -9.999990E-03
       231  1.519512E-09  0.000000E+00 -9.999988E-03
       232  1.857441E-09  0.000000E+00 -9.999987E-03
       233  2.132625E-09  0.000000E+00 -9.999985E-03
       234  2.333589E-09  0.000000E+00 -9.999983E-03
       235  2.451841E-09  0.000000E+00 -9.999981E-03
       236  2.488265E-09  0.000000E+00 -9.999979E-03
       237  2.479116E-09  0.000000E+00 -9.999976E-03
       238  2.554649E-09  0.000000E+00 -9.999972E-03
       239  3.114150E-09  0.000000E+00 -9.999969E-03
       240  4.388678E-09  0.000000E+00 -9.999966E-03
       241  6.189488E-09  0.000000E+00 -9.999965E-03
       242  7.875522E-09  0.000000E+00 -9.999965E-03
       243  9.013376E-09  0.000000E+00 -9.999967E-03
       244  9.626473E-09  0.000000E+00 -9.999969E-03
       245  9.951725E-09  0.000000E+00 -9.999971E-03
       246  1.014999E-08  0.000000E+00 -9.999973E-03
       247  1.026193E-08  0.000000E+00 -9.999975E-03
       248  1.025605E-08  0.000000E+00 -9.999976E-03
       249  1.015077E-08  0.000000E+00 -9.999977E-03
       250  9.947733E-09  0.000000E+00 -9.999978E-03
       251  9.663089E-09  0.000000E+00 -9.999980E-03
       252  9.321097E-09  0.000000E+00 -9.999981E-03
       253  8.953116E-09  0.000000E+00 -9.999982E-03
       254  8.591203E-09  0.000000E+00 -9.999984E-03
       255  8.256392E-09  0.000000E+00 -9.999986E-03
       256  7.961064E-09  0.000000E+00 -9.999987E-03
       257  7.707552E-09  0.000000E+00 -9.999989E-03
       258  7.494555E-09  0.000000E+00 -9.999990E-03
       259  7.321154E-09  0.000000E+00 -9.999992E-03
       260  6.520528E-09  0.000000E+00 -9.999995E-03
       261  6.009370E-09  0.000000E+00 -9.999995E-03
       262  5.407473E-09  0.000000E+00 -9.999995E-03
       263  4.853468E-09  0.000000E+00 -9.999995E-03
       264  4.315700E-09  0.000000E+00 -9.999995E-03
       265  3.789801E-09  0.000000E+00 -9.999996E-03
       266  3.279197E-09  0.000000E+00 -9.999996E-03
       267  2.789051E-09  0.000000E+00 -9.999996E-03
       268  2.324199E-09  0.000000E+00 -9.999996E-03
       269  1.888571E-09  0.000000E+00 -9.999996E-03
       270  1.485025E-09  0.000000E+00 -9.999997E-03
       271  1.115620E-09  0.000000E+00 -9.999997E-03
       272  7.819651E-10  0.000000E+00 -9.999997E-03
       273  7.176069E-09  0.000000E+00 -9.999993E-03
       274  6.732104E-09  0.000000E+00 -9.999994E-03
       275  7.602683E-10  0.000000E+00 -9.999996E-03
       276  7.303042E-10  0.000000E+00 -9.999995E-03
       277  6.910276E-10  0.000000E+00 -9.999994E-03
       278  6.418500E-10  0.000000E+00 -9.999993E-03
       279  5.832239E-10  0.000000E+00 -9.999993E-03
       280  5.174950E-10  0.000000E+00 -9.999992E-03
       281  4.500115E-10  0.000000E+00 -9.999991E-03
       282  3.904226E-10  0.000000E+00 -9.999990E-03
       283  3.540749E-10  0.000000E+00 -9.999990E-03
       284  3.630590E-10  0.000000E+00 -9.999989E-03
       285  4.465619E-10  0.000000E+00 -9.999989E-03
       286  6.400320E-10  0.000000E+00 -9.999989E-03
       287  9.831972E-10  0.000000E+00 -9.999989E-03
       288  6.446273E-09  0.000000E+00 -9.999993E-03
       289  1.220874E-09  0.000000E+00 -9.999987E-03
       290  1.425571E-09  0.000000E+00 -9.999985E-03
       291  1.593949E-09  0.000000E+00 -9.999984E-03
       292  1.735685E-09  0.000000E+00 -9.999982E-03
       293  1.884797E-09  0.000000E+00 -9.999979E-03
       294  2.120768E-09  0.000000E+00 -9.999977E-03
       295  2.610230E-09  0.000000E+00 -9.999974E-03
       296  3.519716E-09  0.000000E+00 -9.999971E-03
       297  4.864065E-09  0.000000E+00 -9.999969E-03
       298  6.457901E-09  0.000000E+00 -9.999968E-03
       299  7.789801E-09  0.000000E+00 -9.999968E-03
       300  8.631902E-09  0.000000E+00 -9.999968E-03
       301  9.024642E-09  0.000000E+00 -9.999970E-03
       302  9.422382E-09  0.000000E+00 -9.999971E-03
       303  9.739141E-09  0.000000E+00 -9.999973E-03
       304  9.964016E-09  0.000000E+00 -9.999974E-03
       305  9.834958E-09  0.000000E+00 -9.999975E-03
       306  9.628384E-09  0.000000E+00 -9.999976E-03
       307  9.375521E-09  0.000000E+00 -9.999978E-03
       308  9.077762E-09  0.000000E+00 -9.999979E-03
       309  8.735117E-09  0.000000E+00 -9.999981E-03
       310  8.374632E-09  0.000000E+00 -9.999982E-03
       311  8.023386E-09  0.000000E+00 -9.999984E-03
       312  7.701732E-09  0.000000E+00 -9.999986E-03
       313  7.427004E-09  0.000000E+00 -9.999987E-03
       314  7.199676E-09  0.000000E+00 -9.999989E-03
       315  7.015917E-09  0.000000E+00 -9.999990E-03
       316  6.880184E-09  0.000000E+00 -9.999992E-03
       317  6.435209E-09  0.000000E+00 -9.999992E-03
       318  5.955578E-09  0.000000E+00 -9.999993E-03
       319  5.425074E-09  0.000000E+00 -9.999993E-03
       320  4.887156E-09  0.000000E+00 -9.999994E-03
       321  4.345912E-09  0.000000E+00 -9.999994E-03
       322  3.808089E-09  0.000000E+00 -9.999994E-03
       323  3.283541E-09  0.000000E+00 -9.999994E-03
       324  2.780752E-09  0.000000E+00 -9.999995E-03
       325  2.306284E-09  0.000000E+00 -9.999995E-03
       326  1.864650E-09  0.000000E+00 -9.999995E-03
       327  1.458739E-09  0.000000E+00 -9.999995E-03
       328  1.090258E-09  0.000000E+00 -9.999996E-03
       329  6.797842E-09  0.000000E+00 -9.999993E-03
       330  8.231538E-10  0.000000E+00 -9.999987E-03
       331  1.054791E-09  0.000000E+00 -9.999995E-03
       332  1.007632E-09  0.000000E+00 -9.999994E-03
       333  9.475278E-10  0.000000E+00 -9.999993E-03
       334  8.742996E-10  0.000000E+00 -9.999992E-03
       335  7.898466E-10  0.000000E+00 -9.999991E-03
       336  6.995274E-10  0.000000E+00 -9.999990E-03
       337  6.139954E-10  0.000000E+00 -9.999989E-03
       338  5.512136E-10  0.000000E+00 -9.999989E-03
       339  5.384403E-10  0.000000E+00 -9.999988E-03
       340  6.133351E-10  0.000000E+00 -9.999988E-03
       341  1.005374E-09  0.000000E+00 -9.999986E-03
       342  1.193722E-09  0.000000E+00 -9.999984E-03
       343  1.411384E-09  0.000000E+00 -9.999982E-03
       344  1.705760E-09  0.000000E+00 -9.999980E-03
       345  2.160795E-09  0.000000E+00 -9.999978E-03
       346  2.879850E-09  0.000000E+00 -9.999976E-03
       347  3.926164E-09  0.000000E+00 -9.999974E-03
       348  5.263272E-09  0.000000E+00 -9.999972E-03
       349  6.881283E-09  0.000000E+00 -9.999971E-03
       350  8.179739E-09  0.000000E+00 -9.999970E-03
       351  9.266482E-09  0.000000E+00 -9.999974E-03
       352  8.732415E-09  0.000000E+00 -9.999972E-03
       353  8.936107E-09  0.000000E+00 -9.999976E-03
       354  8.692140E-09  0.000000E+00 -9.999977E-03
       355  8.382471E-09  0.000000E+00 -9.999979E-03
       356  8.041972E-09  0.000000E+00 -9.999980E-03
       357  7.689163E-09  0.000000E+00 -9.999982E-03
       358  7.360526E-09  0.000000E+00 -9.999984E-03
       359  7.066905E-09  0.000000E+00 -9.999986E-03
       360  6.840396E-09  0.000000E+00 -9.999987E-03
       361  6.660163E-09  0.000000E+00 -9.999989E-03
       362  6.520361E-09  0.000000E+00 -9.999991E-03
       363  5.474146E-09  0.000000E+00 -9.999992E-03
       364  4.934790E-09  0.000000E+00 -9.999992E-03
       365  4.387798E-09  0.000000E+00 -9.999992E-03
       366  3.830754E-09  0.000000E+00 -9.999993E-03
       367  3.285497E-09  0.000000E+00 -9.999993E-03
       368  2.765381E-09  0.000000E+00 -9.999993E-03
       369  2.278502E-09  0.000000E+00 -9.999994E-03
       370  1.829592E-09  0.000000E+00 -9.999994E-03
       371  1.421293E-09  0.000000E+00 -9.999994E-03
       372  1.370482E-09  0.000000E+00 -9.999993E-03
       373  1.304253E-09  0.000000E+00 -9.999992E-03
       374  1.221352E-09  0.000000E+00 -9.999991E-03
       375  1.122549E-09  0.000000E+00 -9.999990E-03
       376  1.012217E-09  0.000000E+00 -9.999989E-03
       377  9.005648E-10  0.000000E+00 -9.999988E-03
       378  8.063524E-10  0.000000E+00 -9.999987E-03
       379  7.600509E-10  0.000000E+00 -9.999987E-03
       380  8.065527E-10  0.000000E+00 -9.999986E-03
       381  7.831060E-09  0.000000E+00 -9.999973E-03
       382  8.103022E-09  0.000000E+00 -9.999975E-03
       383  7.923429E-09  0.000000E+00 -9.999977E-03
       384  4.997530E-09  0.000000E+00 -9.999990E-03
       385  4.455434E-09  0.000000E+00 -9.999991E-03
       386  1.040627E-09  0.000000E+00 -9.999985E-03
       387  1.343364E-09  0.000000E+00 -9.999983E-03
       388  1.760534E-09  0.000000E+00 -9.999981E-03
       389  2.353264E-09  0.000000E+00 -9.999979E-03
       390  3.176621E-09  0.000000E+00 -9.999977E-03
       391  4.237625E-09  0.000000E+00 -9.999976E-03
       392  5.485926E-09  0.000000E+00 -9.999975E-03
       393  6.561576E-09  0.000000E+00 -9.999974E-03
       394  6.006779E-09  0.000000E+00 -9.999991E-03
       395  7.611744E-09  0.000000E+00 -9.999978E-03
       396  7.263985E-09  0.000000E+00 -9.999980E-03
       397  6.901946E-09  0.000000E+00 -9.999982E-03
       398  6.614531E-09  0.000000E+00 -9.999984E-03
       399  6.346737E-09  0.000000E+00 -9.999986E-03
       400  6.212902E-09  0.000000E+00 -9.999988E-03
       401  6.101704E-09  0.000000E+00 -9.999990E-03
       402  3.857916E-09  0.000000E+00 -9.999991E-03
       403  3.281221E-09  0.000000E+00 -9.999991E-03
       404  2.738902E-09  0.000000E+00 -9.999992E-03
       405  2.237308E-09  0.000000E+00 -9.999992E-03
       406  1.780461E-09  0.000000E+00 -9.999993E-03
       407  1.714395E-09  0.000000E+00 -9.999992E-03
       408  1.628624E-09  0.000000E+00 -9.999990E-03
       409  1.522197E-09  0.000000E+00 -9.999989E-03
       410  1.397678E-09  0.000000E+00 -9.999988E-03
       411  1.263155E-09  0.000000E+00 -9.999987E-03
       412  1.135492E-09  0.000000E+00 -9.999986E-03
       413  1.044886E-09  0.000000E+00 -9.999985E-03
       414  6.929829E-09  0.000000E+00 -9.999975E-03
       415  1.419020E-09  0.000000E+00 -9.999984E-03
       416  1.917480E-09  0.000000E+00 -9.999982E-03
       417  2.577428E-09  0.000000E+00 -9.999981E-03
       418  3.427540E-09  0.000000E+00 -9.999979E-03
       419  4.504032E-09  0.000000E+00 -9.999978E-03
       420  5.871939E-09  0.000000E+00 -9.999977E-03
       421  4.631088E-09  0.000000E+00 -9.999989E-03
       422  5.472481E-09  0.000000E+00 -9.999987E-03
       423  4.918054E-09  0.000000E+00 -9.999986E-03
       424  4.437429E-09  0.000000E+00 -9.999987E-03
       425  6.797823E-09  0.000000E+00 -9.999978E-03
       426  6.428875E-09  0.000000E+00 -9.999980E-03
       427  5.987217E-09  0.000000E+00 -9.999982E-03
       428  5.808617E-09  0.000000E+00 -9.999984E-03
       429  5.588871E-09  0.000000E+00 -9.999988E-03
       430  5.539775E-09  0.000000E+00 -9.999990E-03
       431  5.073939E-09  0.000000E+00 -9.999989E-03
       432  3.888656E-09  0.000000E+00 -9.999989E-03
       433  7.229882E-09  0.000000E+00 -9.999977E-03
       434  3.262476E-09  0.000000E+00 -9.999990E-03
       435  2.694790E-09  0.000000E+00 -9.999990E-03
       436  2.178196E-09  0.000000E+00 -9.999991E-03
       437  2.097331E-09  0.000000E+00 -9.999990E-03
       438  1.991937E-09  0.000000E+00 -9.999988E-03
       439  1.862957E-09  0.000000E+00 -9.999987E-03
       440  1.714798E-09  0.000000E+00 -9.999986E-03
       441  1.558833E-09  0.000000E+00 -9.999985E-03
       442  5.057953E-09  0.000000E+00 -9.999984E-03
       443  2.098427E-09  0.000000E+00 -9.999984E-03
       444  2.769388E-09  0.000000E+00 -9.999982E-03
       445  3.581366E-09  0.000000E+00 -9.999981E-03
       446  4.573335E-09  0.000000E+00 -9.999981E-03
       447  5.632028E-09  0.000000E+00 -9.999979E-03
       448  5.083429E-09  0.000000E+00 -9.999983E-03
       449  5.564189E-09  0.000000E+00 -9.999981E-03
       450  3.816220E-09  0.000000E+00 -9.999988E-03
       451  3.200700E-09  0.000000E+00 -9.999988E-03
       452  2.623048E-09  0.000000E+00 -9.999989E-03
       453  2.526913E-09  0.000000E+00 -9.999988E-03
       454  2.407480E-09  0.000000E+00 -9.999986E-03
       455  2.264004E-09  0.000000E+00 -9.999985E-03
       456  5.091275E-09  0.000000E+00 -9.999981E-03
       457  2.909968E-09  0.000000E+00 -9.999984E-03
       458  3.632459E-09  0.000000E+00 -9.999983E-03
       459  4.386113E-09  0.000000E+00 -9.999983E-03
       460  4.253496E-09  0.000000E+00 -9.999986E-03
       461  3.716187E-09  0.000000E+00 -9.999986E-03
       462  3.109865E-09  0.000000E+00 -9.999987E-03
       463  4.337590E-09  0.000000E+00 -9.999985E-03
       464  3.670356E-09  0.000000E+00 -9.999985E-03
       465  3.017853E-09  0.000000E+00 -9.999986E-03
       466  8.077442E-09  0.000000E+00 -9.999993E-03
       467  8.632869E-09  0.000000E+00 -9.999993E-03
       468  8.540681E-09  0.000000E+00 -9.999995E-03
       469  7.994200E-09  0.000000E+00 -9.999995E-03
       470  3.792213E-11  0.000000E+00 -1.000000E-02
       471  3.755971E-11  0.000000E+00 -9.999999E-03
       472  3.645037E-11  0.000000E+00 -9.999999E-03
       473  3.453431E-11  0.000000E+00 -9.999998E-03
       474  3.173346E-11  0.000000E+00 -9.999998E-03
       475  2.798819E-11  0.000000E+00 -9.999997E-03
       476  2.331556E-11  0.000000E+00 -9.999997E-03
       477  1.789542E-11  0.000000E+00 -9.999996E-03
       478  1.219025E-11  0.000000E+00 -9.999996E-03
       479  7.098396E-12  0.000000E+00 -9.999995E-03
       480  4.132418E-12  0.000000E+00 -9.999995E-03
       481  5.596936E-12  0.000000E+00 -9.999995E-03
       482  1.472208E-11  0.000000E+00 -9.999995E-03
       483  3.569246E-11  0.000000E+00 -9.999994E-03
       484  7.355034E-11  0.000000E+00 -9.999994E-03
       485  1.339020E-10  0.000000E+00 -9.999994E-03
       486  2.234801E-10  0.000000E+00 -9.999994E-03
       487  3.489450E-10  0.000000E+00 -9.999994E-03
       488  5.431999E-10  0.000000E+00 -9.999994E-03
       489  8.181276E-10  0.000000E+00 -9.999994E-03
       490  2.511780E-09  0.000000E+00 -9.999993E-03
       491  3.324274E-09  0.000000E+00 -9.999990E-03
       492  1.852591E-09  0.000000E+00 -9.999991E-03
       493  4.039203E-09  0.000000E+00 -9.999988E-03
       494  2.667450E-09  0.000000E+00 -9.999989E-03
       495  4.731376E-09  0.000000E+00 -9.999987E-03
       496  3.357218E-09  0.000000E+00 -9.999987E-03
       497  5.425658E-09  0.000000E+00 -9.999985E-03
       498  3.970138E-09  0.000000E+00 -9.999986E-03
       499  6.121256E-09  0.000000E+00 -9.999984E-03
       500  4.520039E-09  0.000000E+00 -9.999984E-03
       501  6.818291E-09  0.000000E+00 -9.999982E-03
       502  5.005308E-09  0.000000E+00 -9.999982E-03
       503  7.514461E-09  0.000000E+00 -9.999980E-03
       504  5.409049E-09  0.000000E+00 -9.999980E-03
       505  8.206229E-09  0.000000E+00 -9.999977E-03
       506  5.694399E-09  0.000000E+00 -9.999978E-03
       507  8.890952E-09  0.000000E+00 -9.999974E-03
       508  5.787228E-09  0.000000E+00 -9.999975E-03
       509  9.542108E-09  0.000000E+00 -9.999971E-03
       510  5.535221E-09  0.000000E+00 -9.999971E-03
       511  1.012071E-08  0.000000E+00 -9.999965E-03
       512  4.661610E-09  0.000000E+00 -9.999966E-03
       513  9.575653E-09  0.000000E+00 -9.999957E-03
       514  2.942775E-09  0.000000E+00 -9.999957E-03
       515  5.318530E-09  0.000000E+00 -9.999932E-03
       516  5.825697E-09  0.000000E+00 -9.999950E-03
       517  3.475705E-09  0.000000E+00 -9.999960E-03
       518  9.561062E-09  0.000000E+00 -9.999957E-03
       519  3.973805E-09  0.000000E+00 -9.999967E-03
       520  9.069664E-09  0.000000E+00 -9.999965E-03
       521  5.755848E-09  0.000000E+00 -9.999972E-03
       522  9.039826E-09  0.000000E+00 -9.999970E-03
       523  7.311205E-09  0.000000E+00 -9.999974E-03
       524  9.399819E-09  0.000000E+00 -9.999973E-03
       525  8.613880E-09  0.000000E+00 -9.999976E-03
       526  9.857350E-09  0.000000E+00 -9.999975E-03
       527  9.620362E-09  0.000000E+00 -9.999977E-03
       528  1.028095E-08  0.000000E+00 -9.999976E-03
       529  1.032752E-08  0.000000E+00 -9.999978E-03
       530  1.058875E-08  0.000000E+00 -9.999977E-03
       531  1.073242E-08  0.000000E+00 -9.999979E-03
       532  1.072994E-08  0.000000E+00 -9.999978E-03
       533  1.084229E-08  0.000000E+00 -9.999979E-03
       534  1.068375E-08  0.000000E+00 -9.999979E-03
       535  1.071880E-08  0.000000E+00 -9.999980E-03
       536  1.047406E-08  0.000000E+00 -9.999980E-03
       537  1.046906E-08  0.000000E+00 -9.999981E-03
       538  1.016753E-08  0.000000E+00 -9.999981E-03
       539  1.016927E-08  0.000000E+00 -9.999982E-03
       540  9.824663E-09  0.000000E+00 -9.999983E-03
       541  9.863968E-09  0.000000E+00 -9.999984E-03
       542  9.484529E-09  0.000000E+00 -9.999984E-03
       543  9.576636E-09  0.000000E+00 -9.999985E-03
       544  9.169584E-09  0.000000E+00 -9.999985E-03
       545  9.318820E-09  0.000000E+00 -9.999987E-03
       546  8.889327E-09  0.000000E+00 -9.999987E-03
       547  9.095312E-09  0.000000E+00 -9.999988E-03
       548  8.644834E-09  0.000000E+00 -9.999989E-03
       549  8.907131E-09  0.000000E+00 -9.999990E-03
       550  8.431744E-09  0.000000E+00 -9.999990E-03
       551  8.753526E-09  0.000000E+00 -9.999992E-03
       552  8.243772E-09  0.000000E+00 -9.999992E-03
       553  8.476693E-09  0.000000E+00 -9.999997E-03
       554  7.940016E-09  0.000000E+00 -9.999997E-03
       555  8.439155E-09  0.000000E+00 -9.999998E-03
       556  7.907858E-09  0.000000E+00 -9.999998E-03
       557  8.426706E-09  0.000000E+00 -1.000000E-02
       558  7.899335E-09  0.000000E+00 -1.000000E-02
       559  7.375764E-09  0.000000E+00 -1.000000E-02
       560  7.383532E-09  0.000000E+00 -9.999998E-03
       561  6.854175E-09  0.000000E+00 -1.000000E-02
       562  6.867920E-09  0.000000E+00 -9.999998E-03
       563  6.333178E-09  0.000000E+00 -1.000000E-02
       564  6.348989E-09  0.000000E+00 -9.999998E-03