    1C
    1UUSER                                                              
    1UDATE              04.march.2015                                   
    1UTIME              20:06:11                                        
    1UHOST                                                              
    1UPGM               CalculiX                                        
    1UDIR                                                               
    1UDBN                                                               
    1UMAT    1STEEL                                                     
    2C                            40                                     1
 -1         7 5.00000E+00-5.00000E+00 0.00000E+00
 -1         8-5.00000E+00-5.00000E+00 0.00000E+00
 -1         9-5.00000E+00 5.00000E+00 0.00000E+00
 -1        10 5.00000E+00 5.00000E+00 0.00000E+00
 -1        11 0.00000E+00-5.00000E+00 0.00000E+00
 -1        12-5.00000E+00 0.00000E+00 0.00000E+00
 -1        13 0.00000E+00 5.00000E+00 0.00000E+00
 -1        14 5.00000E+00 0.00000E+00 0.00000E+00
 -1        15 5.00000E+00-5.00000E+00-1.50000E+01
 -1        16-5.00000E+00-5.00000E+00-1.50000E+01
 -1        17-5.00000E+00 5.00000E+00-1.50000E+01
 -1        18 5.00000E+00 5.00000E+00-1.50000E+01
 -1        23 5.00000E+00-5.00000E+00-3.00000E+01
 -1        24-5.00000E+00-5.00000E+00-3.00000E+01
 -1        25-5.00000E+00 5.00000E+00-3.00000E+01
 -1        26 5.00000E+00 5.00000E+00-3.00000E+01
 -1        27 0.00000E+00-5.00000E+00-3.00000E+01
 -1        28-5.00000E+00 0.00000E+00-3.00000E+01
 -1        29 0.00000E+00 5.00000E+00-3.00000E+01
 -1        30 5.00000E+00 0.00000E+00-3.00000E+01
 -1        31 5.00000E+00-5.00000E+00-3.00000E+01
 -1        32-5.00000E+00-5.00000E+00-3.00000E+01
 -1        33-5.00000E+00 5.00000E+00-3.00000E+01
 -1        34 5.00000E+00 5.00000E+00-3.00000E+01
 -1        35 0.00000E+00-5.00000E+00-3.00000E+01
 -1        36-5.00000E+00 0.00000E+00-3.00000E+01
 -1        37 0.00000E+00 5.00000E+00-3.00000E+01
 -1        38 5.00000E+00 0.00000E+00-3.00000E+01
 -1        39 5.00000E+00-5.00000E+00-1.80000E+02
 -1        40-5.00000E+00-5.00000E+00-1.80000E+02
 -1        41-5.00000E+00 5.00000E+00-1.80000E+02
 -1        42 5.00000E+00 5.00000E+00-1.80000E+02
 -1        47 5.00000E+00-5.00000E+00-3.30000E+02
 -1        48-5.00000E+00-5.00000E+00-3.30000E+02
 -1        49-5.00000E+00 5.00000E+00-3.30000E+02
 -1        50 5.00000E+00 5.00000E+00-3.30000E+02
 -1        51 0.00000E+00-5.00000E+00-3.30000E+02
 -1        52-5.00000E+00 0.00000E+00-3.30000E+02
 -1        53 0.00000E+00 5.00000E+00-3.30000E+02
 -1        54 5.00000E+00 0.00000E+00-3.30000E+02
 -3
    3C                             2                                     1
 -1         1    4    0    1
 -2         7        23        24         8        10        26        25         9        15        27
 -2        16        11        14        30        28        12        18        29        17        13
 -1         2    4    0    1
 -2        31        47        48        32        34        50        49        33        39        51
 -2        40        35        38        54        52        36        42        53        41        37
 -3
    1PSTEP                         1           1           1          
  100CL  101 1.00000E-05          40                     1    1           1
 -4  DISP        4    1
 -5  D1          1    2    1    0
 -5  D2          1    2    2    0
 -5  D3          1    2    3    0
 -5  ALL         1    2    0    0    1ALL
 -1         7-3.61637E-08 2.63041E-08-3.14000E-04
 -1         8 3.61637E-08 2.63041E-08 3.14000E-04
 -1         9 3.61637E-08-2.63041E-08 3.14000E-04
 -1        10-3.61637E-08-2.63041E-08-3.14000E-04
 -1        11 0.00000E+00 2.63041E-08 0.00000E+00
 -1        12 3.61637E-08 0.00000E+00 3.14000E-04
 -1        13 0.00000E+00-2.63041E-08 0.00000E+00
 -1        14-3.61637E-08 0.00000E+00-3.14000E-04
 -1        15-2.29971E-04 1.75138E-08-7.39540E-06
 -1        16-2.29936E-04 1.75138E-08 6.96495E-06
 -1        17-2.29936E-04-1.75138E-08 6.96495E-06
 -1        18-2.29971E-04-1.75138E-08-7.39540E-06
 -1        23-4.38634E-06 1.18855E-08 8.41685E-05
 -1        24-4.36114E-06 1.18855E-08-8.48765E-05
 -1        25-4.36114E-06-1.18855E-08-8.48765E-05
 -1        26-4.38634E-06-1.18855E-08 8.41685E-05
 -1        27-4.37375E-06 1.18855E-08-3.54021E-07
 -1        28-4.36114E-06 0.00000E+00-8.48765E-05
 -1        29-4.37375E-06-1.18855E-08-3.54021E-07
 -1        30-4.38634E-06 0.00000E+00 8.41685E-05
 -1        31-4.37619E-06 2.44298E-09-7.18541E-08
 -1        32-4.37130E-06 2.44298E-09-6.36187E-07
 -1        33-4.37130E-06-2.44298E-09-6.36187E-07
 -1        34-4.37619E-06-2.44298E-09-7.18541E-08
 -1        35-4.37375E-06 2.44298E-09-3.54021E-07
 -1        36-4.37130E-06 0.00000E+00-6.36187E-07
 -1        37-4.37375E-06-2.44298E-09-3.54021E-07
 -1        38-4.37619E-06 0.00000E+00-7.18541E-08
 -1        39 7.23756E-07 5.24914E-10-4.55903E-07
 -1        40 7.24806E-07 5.24914E-10-5.50650E-07
 -1        41 7.24806E-07-5.24914E-10-5.50650E-07
 -1        42 7.23756E-07-5.24914E-10-4.55903E-07
 -1        47-1.44875E-06-1.39315E-09-6.47019E-07
 -1        48-1.45153E-06-1.39315E-09-2.72178E-07
 -1        49-1.45153E-06 1.39315E-09-2.72178E-07
 -1        50-1.44875E-06 1.39315E-09-6.47019E-07
 -1        51-1.45014E-06-1.39315E-09-4.59599E-07
 -1        52-1.45153E-06 0.00000E+00-2.72178E-07
 -1        53-1.45014E-06 1.39315E-09-4.59599E-07
 -1        54-1.44875E-06 0.00000E+00-6.47019E-07
 -3
    1PSTEP                         2           2           1          
  100CL  102 2.00000E-05          40                     1    2           1
 -4  DISP        4    1
 -5  D1          1    2    1    0
 -5  D2          1    2    2    0
 -5  D3          1    2    3    0
 -5  ALL         1    2    0    0    1ALL
 -1         7-1.08386E-07 6.89476E-08-6.28000E-04
 -1         8 1.08386E-07 6.89476E-08 6.28000E-04
 -1         9 1.08386E-07-6.89476E-08 6.28000E-04
 -1        10-1.08386E-07-6.89476E-08-6.28000E-04
 -1        11 0.00000E+00 6.89476E-08 0.00000E+00
 -1        12 1.08386E-07 0.00000E+00 6.28000E-04
 -1        13 0.00000E+00-6.89476E-08 0.00000E+00
 -1        14-1.08386E-07 0.00000E+00-6.28000E-04
 -1        15-7.54440E-04 5.38590E-08-2.80580E-05
 -1        16-7.54332E-04 5.38590E-08 2.69023E-05
 -1        17-7.54332E-04-5.38590E-08 2.69023E-05
 -1        18-7.54440E-04-5.38590E-08-2.80580E-05
 -1        23-1.14322E-04 5.18863E-08 2.84425E-04
 -1        24-1.14202E-04 5.18863E-08-2.86544E-04
 -1        25-1.14202E-04-5.18863E-08-2.86544E-04
 -1        26-1.14322E-04-5.18863E-08 2.84425E-04
 -1        27-1.14262E-04 5.18863E-08-1.05987E-06
 -1        28-1.14202E-04 0.00000E+00-2.86544E-04
 -1        29-1.14262E-04-5.18863E-08-1.05987E-06
 -1        30-1.14322E-04 0.00000E+00 2.84425E-04
 -1        31-1.14277E-04 1.54307E-08 6.33875E-06
 -1        32-1.14247E-04 1.54307E-08-8.45849E-06
 -1        33-1.14247E-04-1.54307E-08-8.45849E-06
 -1        34-1.14277E-04-1.54307E-08 6.33875E-06
 -1        35-1.14262E-04 1.54307E-08-1.05987E-06
 -1        36-1.14247E-04 0.00000E+00-8.45849E-06
 -1        37-1.14262E-04-1.54307E-08-1.05987E-06
 -1        38-1.14277E-04 0.00000E+00 6.33875E-06
 -1        39 1.89153E-05 3.66737E-09-7.75005E-07
 -1        40 1.89226E-05 3.66737E-09-3.25960E-06
 -1        41 1.89226E-05-3.66737E-09-3.25960E-06
 -1        42 1.89153E-05-3.66737E-09-7.75005E-07
 -1        47-3.78713E-05-8.09359E-09-6.70945E-06
 -1        48-3.78875E-05-8.09359E-09 3.11861E-06
 -1        49-3.78875E-05 8.09359E-09 3.11861E-06
 -1        50-3.78713E-05 8.09359E-09-6.70945E-06
 -1        51-3.78794E-05-8.09359E-09-1.79542E-06
 -1        52-3.78875E-05 0.00000E+00 3.11861E-06
 -1        53-3.78794E-05 8.09359E-09-1.79542E-06
 -1        54-3.78713E-05 0.00000E+00-6.70945E-06
 -3
    1PSTEP                         3           3           1          
  100CL  103 3.50000E-05          40                     1    3           1
 -4  DISP        4    1
 -5  D1          1    2    1    0
 -5  D2          1    2    2    0
 -5  D3          1    2    3    0
 -5  ALL         1    2    0    0    1ALL
 -1         7-2.27886E-07 1.07106E-07-1.09900E-03
 -1         8 2.27886E-07 1.07106E-07 1.09900E-03
 -1         9 2.27886E-07-1.07106E-07 1.09900E-03
 -1        10-2.27886E-07-1.07106E-07-1.09900E-03
 -1        11 0.00000E+00 1.07106E-07 0.00000E+00
 -1        12 2.27886E-07 0.00000E+00 1.09900E-03
 -1        13 0.00000E+00-1.07106E-07 0.00000E+00
 -1        14-2.27886E-07 0.00000E+00-1.09900E-03
 -1        15-1.52839E-03 9.06038E-08-1.60889E-04
 -1        16-1.52821E-03 9.06038E-08 1.59151E-04
 -1        17-1.52821E-03-9.06038E-08 1.59151E-04
 -1        18-1.52839E-03-9.06038E-08-1.60889E-04
 -1        23-8.87901E-04 1.06003E-07 3.26256E-04
 -1        24-8.87668E-04 1.06003E-07-3.29774E-04
 -1        25-8.87668E-04-1.06003E-07-3.29774E-04
 -1        26-8.87901E-04-1.06003E-07 3.26256E-04
 -1        27-8.87784E-04 1.06003E-07-1.75915E-06
 -1        28-8.87668E-04 0.00000E+00-3.29774E-04
 -1        29-8.87784E-04-1.06003E-07-1.75915E-06
 -1        30-8.87901E-04 0.00000E+00 3.26256E-04
 -1        31-8.87847E-04 6.24600E-08 5.68323E-05
 -1        32-8.87722E-04 6.24600E-08-6.03506E-05
 -1        33-8.87722E-04-6.24600E-08-6.03506E-05
 -1        34-8.87847E-04-6.24600E-08 5.68323E-05
 -1        35-8.87784E-04 6.24600E-08-1.75915E-06
 -1        36-8.87722E-04 0.00000E+00-6.03506E-05
 -1        37-8.87784E-04-6.24600E-08-1.75915E-06
 -1        38-8.87847E-04 0.00000E+00 5.68323E-05
 -1        39 1.46734E-04 1.94169E-08 4.00090E-06
 -1        40 1.46773E-04 1.94169E-08-1.57000E-05
 -1        41 1.46773E-04-1.94169E-08-1.57000E-05
 -1        42 1.46734E-04-1.94169E-08 4.00090E-06
 -1        47-2.93813E-04-2.34821E-08-4.45352E-05
 -1        48-2.93859E-04-2.34821E-08 3.32459E-05
 -1        49-2.93859E-04 2.34821E-08 3.32459E-05
 -1        50-2.93813E-04 2.34821E-08-4.45352E-05
 -1        51-2.93836E-04-2.34821E-08-5.64467E-06
 -1        52-2.93859E-04 0.00000E+00 3.32459E-05
 -1        53-2.93836E-04 2.34821E-08-5.64467E-06
 -1        54-2.93813E-04 0.00000E+00-4.45352E-05
 -3
    1PSTEP                         4           4           1          
  100CL  104 5.75000E-05          40                     1    4           1
 -4  DISP        4    1
 -5  D1          1    2    1    0
 -5  D2          1    2    2    0
 -5  D3          1    2    3    0
 -5  ALL         1    2    0    0    1ALL
 -1         7-4.86633E-07 1.60650E-07-1.80550E-03
 -1         8 4.86633E-07 1.60650E-07 1.80550E-03
 -1         9 4.86633E-07-1.60650E-07 1.80550E-03
 -1        10-4.86633E-07-1.60650E-07-1.80550E-03
 -1        11 0.00000E+00 1.60650E-07 0.00000E+00
 -1        12 4.86633E-07 0.00000E+00 1.80550E-03
 -1        13 0.00000E+00-1.60650E-07 0.00000E+00
 -1        14-4.86633E-07 0.00000E+00-1.80550E-03
 -1        15-3.13863E-03 1.42925E-07-6.71589E-04
 -1        16-3.13825E-03 1.42925E-07 6.69321E-04
 -1        17-3.13825E-03-1.42925E-07 6.69321E-04
 -1        18-3.13863E-03-1.42925E-07-6.71589E-04
 -1        23-3.91402E-03 1.69888E-07-1.53791E-04
 -1        24-3.91367E-03 1.69888E-07 1.48647E-04
 -1        25-3.91367E-03-1.69888E-07 1.48647E-04
 -1        26-3.91402E-03-1.69888E-07-1.53791E-04
 -1        27-3.91384E-03 1.69888E-07-2.57237E-06
 -1        28-3.91367E-03 0.00000E+00 1.48647E-04
 -1        29-3.91384E-03-1.69888E-07-2.57237E-06
 -1        30-3.91402E-03 0.00000E+00-1.53791E-04
 -1        31-3.91400E-03 1.49661E-07 2.56469E-04
 -1        32-3.91369E-03 1.49661E-07-2.61614E-04
 -1        33-3.91369E-03-1.49661E-07-2.61614E-04
 -1        34-3.91400E-03-1.49661E-07 2.56469E-04
 -1        35-3.91384E-03 1.49661E-07-2.57237E-06
 -1        36-3.91369E-03 0.00000E+00-2.61614E-04
 -1        37-3.91384E-03-1.49661E-07-2.57237E-06
 -1        38-3.91400E-03 0.00000E+00 2.56469E-04
 -1        39 6.44076E-04 6.61719E-08 3.04325E-05
 -1        40 6.44208E-04 6.61719E-08-5.69517E-05
 -1        41 6.44208E-04-6.61719E-08-5.69517E-05
 -1        42 6.44076E-04-6.61719E-08 3.04325E-05
 -1        47-1.28973E-03-1.45226E-08-1.87453E-04
 -1        48-1.28975E-03-1.45226E-08 1.55862E-04
 -1        49-1.28975E-03 1.45226E-08 1.55862E-04
 -1        50-1.28973E-03 1.45226E-08-1.87453E-04
 -1        51-1.28974E-03-1.45226E-08-1.57952E-05
 -1        52-1.28975E-03 0.00000E+00 1.55862E-04
 -1        53-1.28974E-03 1.45226E-08-1.57952E-05
 -1        54-1.28973E-03 0.00000E+00-1.87453E-04
 -3
    1PSTEP                         5           5           1          
  100CL  105 9.12500E-05          40                     1    5           1
 -4  DISP        4    1
 -5  D1          1    2    1    0
 -5  D2          1    2    2    0
 -5  D3          1    2    3    0
 -5  ALL         1    2    0    0    1ALL
 -1         7-1.11760E-06 2.96630E-07-2.86525E-03
 -1         8 1.11760E-06 2.96630E-07 2.86525E-03
 -1         9 1.11760E-06-2.96630E-07 2.86525E-03
 -1        10-1.11760E-06-2.96630E-07-2.86525E-03
 -1        11 0.00000E+00 2.96630E-07 0.00000E+00
 -1        12 1.11760E-06 0.00000E+00 2.86525E-03
 -1        13 0.00000E+00-2.96630E-07 0.00000E+00
 -1        14-1.11760E-06 0.00000E+00-2.86525E-03
 -1        15-7.16130E-03 2.81275E-07-2.11074E-03
 -1        16-7.15984E-03 2.81275E-07 2.10843E-03
 -1        17-7.15984E-03-2.81275E-07 2.10843E-03
 -1        18-7.16130E-03-2.81275E-07-2.11074E-03
 -1        23-1.25970E-02 2.86463E-07-1.72570E-03
 -1        24-1.25959E-02 2.86463E-07 1.71978E-03
 -1        25-1.25959E-02-2.86463E-07 1.71978E-03
 -1        26-1.25970E-02-2.86463E-07-1.72570E-03
 -1        27-1.25965E-02 2.86463E-07-2.95675E-06
 -1        28-1.25959E-02 0.00000E+00 1.71978E-03
 -1        29-1.25965E-02-2.86463E-07-2.95675E-06
 -1        30-1.25970E-02 0.00000E+00-1.72570E-03
 -1        31-1.25968E-02 2.91791E-07 8.28935E-04
 -1        32-1.25961E-02 2.91791E-07-8.34848E-04
 -1        33-1.25961E-02-2.91791E-07-8.34848E-04
 -1        34-1.25968E-02-2.91791E-07 8.28935E-04
 -1        35-1.25965E-02 2.91791E-07-2.95675E-06
 -1        36-1.25961E-02 0.00000E+00-8.34848E-04
 -1        37-1.25965E-02-2.91791E-07-2.95675E-06
 -1        38-1.25968E-02 0.00000E+00 8.28935E-04
 -1        39 2.04871E-03 1.46689E-07 1.17722E-04
 -1        40 2.04901E-03 1.46689E-07-1.65336E-04
 -1        41 2.04901E-03-1.46689E-07-1.65336E-04
 -1        42 2.04871E-03-1.46689E-07 1.17722E-04
 -1        47-4.10250E-03 3.02705E-08-5.80998E-04
 -1        48-4.10238E-03 3.02705E-08 5.16669E-04
 -1        49-4.10238E-03-3.02705E-08 5.16669E-04
 -1        50-4.10250E-03-3.02705E-08-5.80998E-04
 -1        51-4.10244E-03 3.02705E-08-3.21645E-05
 -1        52-4.10238E-03 0.00000E+00 5.16669E-04
 -1        53-4.10244E-03-3.02705E-08-3.21645E-05
 -1        54-4.10250E-03 0.00000E+00-5.80998E-04
 -3
    1PSTEP                         6           6           1          
  100CL  106 1.41875E-04          40                     1    6           1
 -4  DISP        4    1
 -5  D1          1    2    1    0
 -5  D2          1    2    2    0
 -5  D3          1    2    3    0
 -5  ALL         1    2    0    0    1ALL
 -1         7-2.44287E-06 4.58281E-07-4.45487E-03
 -1         8 2.44287E-06 4.58281E-07 4.45487E-03
 -1         9 2.44287E-06-4.58281E-07 4.45487E-03
 -1        10-2.44287E-06-4.58281E-07-4.45487E-03
 -1        11 0.00000E+00 4.58281E-07 0.00000E+00
 -1        12 2.44287E-06 0.00000E+00 4.45487E-03
 -1        13 0.00000E+00-4.58281E-07 0.00000E+00
 -1        14-2.44287E-06 0.00000E+00-4.45487E-03
 -1        15-1.42111E-02 4.45305E-07-4.88879E-03
 -1        16-1.42055E-02 4.45305E-07 4.89323E-03
 -1        17-1.42055E-02-4.45305E-07 4.89323E-03
 -1        18-1.42111E-02-4.45305E-07-4.88879E-03
 -1        23-2.93860E-02 4.39080E-07-5.10102E-03
 -1        24-2.93799E-02 4.39080E-07 5.11200E-03
 -1        25-2.93799E-02-4.39080E-07 5.11200E-03
 -1        26-2.93860E-02-4.39080E-07-5.10102E-03
 -1        27-2.93829E-02 4.39080E-07 5.49033E-06
 -1        28-2.93799E-02 0.00000E+00 5.11200E-03
 -1        29-2.93829E-02-4.39080E-07 5.49033E-06
 -1        30-2.93860E-02 0.00000E+00-5.10102E-03
 -1        31-2.93838E-02 4.99348E-07 1.93037E-03
 -1        32-2.93821E-02 4.99348E-07-1.91939E-03
 -1        33-2.93821E-02-4.99348E-07-1.91939E-03
 -1        34-2.93838E-02-4.99348E-07 1.93037E-03
 -1        35-2.93829E-02 4.99348E-07 5.49033E-06
 -1        36-2.93821E-02 0.00000E+00-1.91939E-03
 -1        37-2.93829E-02-4.99348E-07 5.49033E-06
 -1        38-2.93838E-02 0.00000E+00 1.93037E-03
 -1        39 4.61550E-03 2.04174E-07 3.11769E-04
 -1        40 4.61593E-03 2.04174E-07-3.59613E-04
 -1        41 4.61593E-03-2.04174E-07-3.59613E-04
 -1        42 4.61550E-03-2.04174E-07 3.11769E-04
 -1        47-9.24286E-03 6.09210E-08-1.28812E-03
 -1        48-9.24243E-03 6.09210E-08 1.21887E-03
 -1        49-9.24243E-03-6.09210E-08 1.21887E-03
 -1        50-9.24286E-03-6.09210E-08-1.28812E-03
 -1        51-9.24265E-03 6.09210E-08-3.46227E-05
 -1        52-9.24243E-03 0.00000E+00 1.21887E-03
 -1        53-9.24265E-03-6.09210E-08-3.46227E-05
 -1        54-9.24286E-03 0.00000E+00-1.28812E-03
 -3
    1PSTEP                         7           7           1          
  100CL  107 2.17813E-04          40                     1    7           1
 -4  DISP        4    1
 -5  D1          1    2    1    0
 -5  D2          1    2    2    0
 -5  D3          1    2    3    0
 -5  ALL         1    2    0    0    1ALL
 -1         7-4.94722E-06 2.69598E-07-6.83931E-03
 -1         8 4.94722E-06 2.69598E-07 6.83931E-03
 -1         9 4.94722E-06-2.69598E-07 6.83931E-03
 -1        10-4.94722E-06-2.69598E-07-6.83931E-03
 -1        11 0.00000E+00 2.69598E-07 0.00000E+00
 -1        12 4.94722E-06 0.00000E+00 6.83931E-03
 -1        13 0.00000E+00-2.69598E-07 0.00000E+00
 -1        14-4.94722E-06 0.00000E+00-6.83931E-03
 -1        15-2.21140E-02 2.54336E-07-7.64270E-03
 -1        16-2.21018E-02 2.54336E-07 7.67010E-03
 -1        17-2.21018E-02-2.54336E-07 7.67010E-03
 -1        18-2.21140E-02-2.54336E-07-7.64270E-03
 -1        23-4.60160E-02 2.62667E-07-8.02515E-03
 -1        24-4.60025E-02 2.62667E-07 8.08558E-03
 -1        25-4.60025E-02-2.62667E-07 8.08558E-03
 -1        26-4.60160E-02-2.62667E-07-8.02515E-03
 -1        27-4.60092E-02 2.62667E-07 3.02174E-05
 -1        28-4.60025E-02 0.00000E+00 8.08558E-03
 -1        29-4.60092E-02-2.62667E-07 3.02174E-05
 -1        30-4.60160E-02 0.00000E+00-8.02515E-03
 -1        31-4.60104E-02 3.68977E-07 2.95909E-03
 -1        32-4.60080E-02 3.68977E-07-2.89866E-03
 -1        33-4.60080E-02-3.68977E-07-2.89866E-03
 -1        34-4.60104E-02-3.68977E-07 2.95909E-03
 -1        35-4.60092E-02 3.68977E-07 3.02174E-05
 -1        36-4.60080E-02 0.00000E+00-2.89866E-03
 -1        37-4.60092E-02-3.68977E-07 3.02174E-05
 -1        38-4.60104E-02 0.00000E+00 2.95909E-03
 -1        39 6.37067E-03 7.50893E-08 5.75616E-04
 -1        40 6.37088E-03 7.50893E-08-5.32759E-04
 -1        41 6.37088E-03-7.50893E-08-5.32759E-04
 -1        42 6.37067E-03-7.50893E-08 5.75616E-04
 -1        47-1.27606E-02 1.20434E-07-1.80336E-03
 -1        48-1.27597E-02 1.20434E-07 1.83764E-03
 -1        49-1.27597E-02-1.20434E-07 1.83764E-03
 -1        50-1.27606E-02-1.20434E-07-1.80336E-03
 -1        51-1.27601E-02 1.20434E-07 1.71422E-05
 -1        52-1.27597E-02 0.00000E+00 1.83764E-03
 -1        53-1.27601E-02-1.20434E-07 1.71422E-05
 -1        54-1.27606E-02 0.00000E+00-1.80336E-03
 -3
    1PSTEP                         8           8           1          
  100CL  108 3.31719E-04          40                     1    8           1
 -4  DISP        4    1
 -5  D1          1    2    1    0
 -5  D2          1    2    2    0
 -5  D3          1    2    3    0
 -5  ALL         1    2    0    0    1ALL
 -1         7-1.07641E-05-8.51061E-08-1.04160E-02
 -1         8 1.07641E-05-8.51061E-08 1.04160E-02
 -1         9 1.07641E-05 8.51061E-08 1.04160E-02
 -1        10-1.07641E-05 8.51061E-08-1.04160E-02
 -1        11 0.00000E+00-8.51061E-08 0.00000E+00
 -1        12 1.07641E-05 0.00000E+00 1.04160E-02
 -1        13 0.00000E+00 8.51061E-08 0.00000E+00
 -1        14-1.07641E-05 0.00000E+00-1.04160E-02
 -1        15-2.98539E-02-9.60033E-08-9.65968E-03
 -1        16-2.98353E-02-9.60033E-08 9.72091E-03
 -1        17-2.98353E-02 9.60033E-08 9.72091E-03
 -1        18-2.98539E-02 9.60033E-08-9.65968E-03
 -1        23-5.80877E-02-8.81891E-08-9.27329E-03
 -1        24-5.80704E-02-8.81891E-08 9.38961E-03
 -1        25-5.80704E-02 8.81891E-08 9.38961E-03
 -1        26-5.80877E-02 8.81891E-08-9.27329E-03
 -1        27-5.80790E-02-8.81891E-08 5.81582E-05
 -1        28-5.80704E-02 0.00000E+00 9.38961E-03
 -1        29-5.80790E-02 8.81891E-08 5.81582E-05
 -1        30-5.80877E-02 0.00000E+00-9.27329E-03
 -1        31-5.80802E-02 1.61575E-08 3.43302E-03
 -1        32-5.80779E-02 1.61575E-08-3.31670E-03
 -1        33-5.80779E-02-1.61575E-08-3.31670E-03
 -1        34-5.80802E-02-1.61575E-08 3.43302E-03
 -1        35-5.80790E-02 1.61575E-08 5.81582E-05
 -1        36-5.80779E-02 0.00000E+00-3.31670E-03
 -1        37-5.80790E-02-1.61575E-08 5.81582E-05
 -1        38-5.80802E-02 0.00000E+00 3.43302E-03
 -1        39 4.80597E-03-1.31553E-07 8.89399E-04
 -1        40 4.80583E-03-1.31553E-07-7.25202E-04
 -1        41 4.80583E-03 1.31553E-07-7.25202E-04
 -1        42 4.80597E-03 1.31553E-07 8.89399E-04
 -1        47-9.63940E-03 1.17410E-07-1.67177E-03
 -1        48-9.63855E-03 1.17410E-07 1.84875E-03
 -1        49-9.63855E-03-1.17410E-07 1.84875E-03
 -1        50-9.63940E-03-1.17410E-07-1.67177E-03
 -1        51-9.63897E-03 1.17410E-07 8.84919E-05
 -1        52-9.63855E-03 0.00000E+00 1.84875E-03
 -1        53-9.63897E-03-1.17410E-07 8.84919E-05
 -1        54-9.63940E-03 0.00000E+00-1.67177E-03
 -3
    1PSTEP                         9           9           1          
  100CL  109 5.02578E-04          40                     1    9           1
 -4  DISP        4    1
 -5  D1          1    2    1    0
 -5  D2          1    2    2    0
 -5  D3          1    2    3    0
 -5  ALL         1    2    0    0    1ALL
 -1         7-2.52841E-05 3.80306E-07-1.57809E-02
 -1         8 2.52841E-05 3.80306E-07 1.57809E-02
 -1         9 2.52841E-05-3.80306E-07 1.57809E-02
 -1        10-2.52841E-05-3.80306E-07-1.57809E-02
 -1        11 0.00000E+00 3.80306E-07 0.00000E+00
 -1        12 2.52841E-05 0.00000E+00 1.57809E-02
 -1        13 0.00000E+00-3.80306E-07 0.00000E+00
 -1        14-2.52841E-05 0.00000E+00-1.57809E-02
 -1        15-4.67292E-02 3.69836E-07-1.53846E-02
 -1        16-4.66807E-02 3.69836E-07 1.55226E-02
 -1        17-4.66807E-02-3.69836E-07 1.55226E-02
 -1        18-4.67292E-02-3.69836E-07-1.53846E-02
 -1        23-9.27161E-02 3.63151E-07-1.51583E-02
 -1        24-9.26686E-02 3.63151E-07 1.54299E-02
 -1        25-9.26686E-02-3.63151E-07 1.54299E-02
 -1        26-9.27161E-02-3.63151E-07-1.51583E-02
 -1        27-9.26923E-02 3.63151E-07 1.35805E-04
 -1        28-9.26686E-02 0.00000E+00 1.54299E-02
 -1        29-9.26923E-02-3.63151E-07 1.35805E-04
 -1        30-9.27161E-02 0.00000E+00-1.51583E-02
 -1        31-9.26950E-02 5.62849E-07 4.72691E-03
 -1        32-9.26896E-02 5.62849E-07-4.45530E-03
 -1        33-9.26896E-02-5.62849E-07-4.45530E-03
 -1        34-9.26950E-02-5.62849E-07 4.72691E-03
 -1        35-9.26923E-02 5.62849E-07 1.35805E-04
 -1        36-9.26896E-02 0.00000E+00-4.45530E-03
 -1        37-9.26923E-02-5.62849E-07 1.35805E-04
 -1        38-9.26950E-02 0.00000E+00 4.72691E-03
 -1        39-3.25865E-04 9.60679E-08 1.69311E-03
 -1        40-3.25190E-04 9.60679E-08-1.41655E-03
 -1        41-3.25190E-04-9.60679E-08-1.41655E-03
 -1        42-3.25865E-04-9.60679E-08 1.69311E-03
 -1        47 5.98030E-04 1.83959E-07-1.35019E-03
 -1        48 5.98837E-04 1.83959E-07 1.61270E-03
 -1        49 5.98837E-04-1.83959E-07 1.61270E-03
 -1        50 5.98030E-04-1.83959E-07-1.35019E-03
 -1        51 5.98434E-04 1.83959E-07 1.31258E-04
 -1        52 5.98837E-04 0.00000E+00 1.61270E-03
 -1        53 5.98434E-04-1.83959E-07 1.31258E-04
 -1        54 5.98030E-04 0.00000E+00-1.35019E-03
 -3
    1PSTEP                        10          10           1          
  100CL  110 7.58867E-04          40                     1   10           1
 -4  DISP        4    1
 -5  D1          1    2    1    0
 -5  D2          1    2    2    0
 -5  D3          1    2    3    0
 -5  ALL         1    2    0    0    1ALL
 -1         7-5.70240E-05 2.44742E-07-2.38283E-02
 -1         8 5.70240E-05 2.44742E-07 2.38283E-02
 -1         9 5.70240E-05-2.44742E-07 2.38283E-02
 -1        10-5.70240E-05-2.44742E-07-2.38283E-02
 -1        11 0.00000E+00 2.44742E-07 0.00000E+00
 -1        12 5.70240E-05 0.00000E+00 2.38283E-02
 -1        13 0.00000E+00-2.44742E-07 0.00000E+00
 -1        14-5.70240E-05 0.00000E+00-2.38283E-02
 -1        15-7.22824E-02 2.32003E-07-2.40333E-02
 -1        16-7.21648E-02 2.32003E-07 2.43763E-02
 -1        17-7.21648E-02-2.32003E-07 2.43763E-02
 -1        18-7.22824E-02-2.32003E-07-2.40333E-02
 -1        23-1.45322E-01 2.24237E-07-2.40386E-02
 -1        24-1.45202E-01 2.24237E-07 2.47327E-02
 -1        25-1.45202E-01-2.24237E-07 2.47327E-02
 -1        26-1.45322E-01-2.24237E-07-2.40386E-02
 -1        27-1.45262E-01 2.24237E-07 3.47051E-04
 -1        28-1.45202E-01 0.00000E+00 2.47327E-02
 -1        29-1.45262E-01-2.24237E-07 3.47051E-04
 -1        30-1.45322E-01 0.00000E+00-2.40386E-02
 -1        31-1.45265E-01 3.13026E-07 5.59421E-03
 -1        32-1.45259E-01 3.13026E-07-4.90011E-03
 -1        33-1.45259E-01-3.13026E-07-4.90011E-03
 -1        34-1.45265E-01-3.13026E-07 5.59421E-03
 -1        35-1.45262E-01 3.13026E-07 3.47051E-04
 -1        36-1.45259E-01 0.00000E+00-4.90011E-03
 -1        37-1.45262E-01-3.13026E-07 3.47051E-04
 -1        38-1.45265E-01 0.00000E+00 5.59421E-03
 -1        39-2.00955E-02 7.03466E-08 3.47273E-03
 -1        40-2.00935E-02 7.03466E-08-2.70547E-03
 -1        41-2.00935E-02-7.03466E-08-2.70547E-03
 -1        42-2.00955E-02-7.03466E-08 3.47273E-03
 -1        47 4.00829E-02 1.07855E-07 1.32136E-03
 -1        48 4.00833E-02 1.07855E-07-5.40720E-04
 -1        49 4.00833E-02-1.07855E-07-5.40720E-04
 -1        50 4.00829E-02-1.07855E-07 1.32136E-03
 -1        51 4.00831E-02 1.07855E-07 3.90320E-04
 -1        52 4.00833E-02 0.00000E+00-5.40720E-04
 -1        53 4.00831E-02-1.07855E-07 3.90320E-04
 -1        54 4.00829E-02 0.00000E+00 1.32136E-03
 -3
    1PSTEP                        11          11           1          
  100CL  111 1.14330E-03          40                     1   11           1
 -4  DISP        4    1
 -5  D1          1    2    1    0
 -5  D2          1    2    2    0
 -5  D3          1    2    3    0
 -5  ALL         1    2    0    0    1ALL
 -1         7-1.28956E-04 7.79599E-08-3.58993E-02
 -1         8 1.28956E-04 7.79599E-08 3.58993E-02
 -1         9 1.28956E-04-7.79599E-08 3.58993E-02
 -1        10-1.28956E-04-7.79599E-08-3.58993E-02
 -1        11 0.00000E+00 7.79599E-08 0.00000E+00
 -1        12 1.28956E-04 0.00000E+00 3.58993E-02
 -1        13 0.00000E+00-7.79599E-08 0.00000E+00
 -1        14-1.28956E-04 0.00000E+00-3.58993E-02
 -1        15-1.07219E-01 7.23590E-08-3.52083E-02
 -1        16-1.06966E-01 7.23590E-08 3.59714E-02
 -1        17-1.06966E-01-7.23590E-08 3.59714E-02
 -1        18-1.07219E-01-7.23590E-08-3.52083E-02
 -1        23-2.13638E-01 7.01283E-08-3.46821E-02
 -1        24-2.13386E-01 7.01283E-08 3.61988E-02
 -1        25-2.13386E-01-7.01283E-08 3.61988E-02
 -1        26-2.13638E-01-7.01283E-08-3.46821E-02
 -1        27-2.13512E-01 7.01283E-08 7.58356E-04
 -1        28-2.13386E-01 0.00000E+00 3.61988E-02
 -1        29-2.13512E-01-7.01283E-08 7.58356E-04
 -1        30-2.13638E-01 0.00000E+00-3.46821E-02
 -1        31-2.13514E-01 1.03681E-07 5.12854E-03
 -1        32-2.13510E-01 1.03681E-07-3.61183E-03
 -1        33-2.13510E-01-1.03681E-07-3.61183E-03
 -1        34-2.13514E-01-1.03681E-07 5.12854E-03
 -1        35-2.13512E-01 1.03681E-07 7.58356E-04
 -1        36-2.13510E-01 0.00000E+00-3.61183E-03
 -1        37-2.13512E-01-1.03681E-07 7.58356E-04
 -1        38-2.13514E-01 0.00000E+00 5.12854E-03
 -1        39-6.31395E-02 1.27029E-08 6.48894E-03
 -1        40-6.31330E-02 1.27029E-08-4.83060E-03
 -1        41-6.31330E-02-1.27029E-08-4.83060E-03
 -1        42-6.31395E-02-1.27029E-08 6.48894E-03
 -1        47 1.26070E-01 2.17717E-08 7.89741E-03
 -1        48 1.26080E-01 2.17717E-08-6.00132E-03
 -1        49 1.26080E-01-2.17717E-08-6.00132E-03
 -1        50 1.26070E-01-2.17717E-08 7.89741E-03
 -1        51 1.26075E-01 2.17717E-08 9.48041E-04
 -1        52 1.26080E-01 0.00000E+00-6.00132E-03
 -1        53 1.26075E-01-2.17717E-08 9.48041E-04
 -1        54 1.26070E-01 0.00000E+00 7.89741E-03
 -3
    1PSTEP                        12          12           1          
  100CL  112 1.71995E-03          40                     1   12           1
 -4  DISP        4    1
 -5  D1          1    2    1    0
 -5  D2          1    2    2    0
 -5  D3          1    2    3    0
 -5  ALL         1    2    0    0    1ALL
 -1         7-2.92041E-04 3.73649E-07-5.40054E-02
 -1         8 2.92041E-04 3.73649E-07 5.40054E-02
 -1         9 2.92041E-04-3.73649E-07 5.40054E-02
 -1        10-2.92041E-04-3.73649E-07-5.40054E-02
 -1        11 0.00000E+00 3.73649E-07 0.00000E+00
 -1        12 2.92041E-04 0.00000E+00 5.40054E-02
 -1        13 0.00000E+00-3.73649E-07 0.00000E+00
 -1        14-2.92041E-04 0.00000E+00-5.40054E-02
 -1        15-1.62908E-01 3.60236E-07-5.34354E-02
 -1        16-1.62317E-01 3.60236E-07 5.51909E-02
 -1        17-1.62317E-01-3.60236E-07 5.51909E-02
 -1        18-1.62908E-01-3.60236E-07-5.34354E-02
 -1        23-3.26203E-01 3.50180E-07-5.27018E-02
 -1        24-3.25609E-01 3.50180E-07 5.62280E-02
 -1        25-3.25609E-01-3.50180E-07 5.62280E-02
 -1        26-3.26203E-01-3.50180E-07-5.27018E-02
 -1        27-3.25906E-01 3.50180E-07 1.76310E-03
 -1        28-3.25609E-01 0.00000E+00 5.62280E-02
 -1        29-3.25906E-01-3.50180E-07 1.76310E-03