    1C
    1UUSER                                                              
    1UDATE              04.march.2015                                   
    1UTIME              20:06:15                                        
    1UHOST                                                              
    1UPGM               CalculiX                                        
    1UDIR                                                               
    1UDBN                                                               
    1UMAT    1EL                                                        
    2C                            20                                     1
 -1         9 1.00000E+00 0.00000E+00-5.00000E-03
 -1        10 1.00000E+00 0.00000E+00 0.00000E+00
 -1        11 1.00000E+00 0.00000E+00 5.00000E-03
 -1        12 0.00000E+00 0.00000E+00-5.00000E-03
 -1        13 0.00000E+00 0.00000E+00 0.00000E+00
 -1        14 0.00000E+00 0.00000E+00 5.00000E-03
 -1        15 0.00000E+00 1.00000E+00-5.00000E-03
 -1        16 0.00000E+00 1.00000E+00 0.00000E+00
 -1        17 0.00000E+00 1.00000E+00 5.00000E-03
 -1        18 1.00000E+00 1.00000E+00-5.00000E-03
 -1        19 1.00000E+00 1.00000E+00 0.00000E+00
 -1        20 1.00000E+00 1.00000E+00 5.00000E-03
 -1        21 1.00000E+00 5.00000E-01-5.00000E-03
 -1        23 1.00000E+00 5.00000E-01 5.00000E-03
 -1        24 5.00000E-01 1.00000E+00-5.00000E-03
 -1        26 5.00000E-01 1.00000E+00 5.00000E-03
 -1        27 0.00000E+00 5.00000E-01-5.00000E-03
 -1        29 0.00000E+00 5.00000E-01 5.00000E-03
 -1        30 5.00000E-01 0.00000E+00-5.00000E-03
 -1        32 5.00000E-01 0.00000E+00 5.00000E-03
 -3
    3C                             1                                     1
 -1         1    4    0    1
 -2         9        18        15        12        11        20        17        14        21        24
 -2        27        30        10        19        16        13        23        26        29        32
 -3
    1PSTEP                         1           1           1          
  100CL  101 1.000000000          20                     0    1           1
 -4  DISP        4    1
 -5  D1          1    2    1    0
 -5  D2          1    2    2    0
 -5  D3          1    2    3    0
 -5  ALL         1    2    0    0    1ALL
 -1         9 0.00000E+00 0.00000E+00 0.00000E+00
 -1        10 0.00000E+00 0.00000E+00 0.00000E+00
 -1        11 0.00000E+00 0.00000E+00 0.00000E+00
 -1        12 1.85714E-04 0.00000E+00 0.00000E+00
 -1        13 1.85714E-04 0.00000E+00 0.00000E+00
 -1        14 1.85714E-04 0.00000E+00 0.00000E+00
 -1        15 1.85714E-04 4.33333E-04 0.00000E+00
 -1        16 1.85714E-04 4.33333E-04 0.00000E+00
 -1        17 1.85714E-04 4.33333E-04 0.00000E+00
 -1        18 2.89002E-12 4.33333E-04 0.00000E+00
 -1        19 2.89002E-12 4.33333E-04 0.00000E+00
 -1        20 2.89002E-12 4.33333E-04 0.00000E+00
 -1        21-1.93019E-13 2.16667E-04 0.00000E+00
 -1        23-1.93019E-13 2.16667E-04 0.00000E+00
 -1        24 9.28571E-05 4.33333E-04 0.00000E+00
 -1        26 9.28571E-05 4.33333E-04 0.00000E+00
 -1        27 1.85714E-04 2.16667E-04 0.00000E+00
 -1        29 1.85714E-04 2.16667E-04 0.00000E+00
 -1        30 9.28571E-05 0.00000E+00 0.00000E+00
 -1        32 9.28571E-05 0.00000E+00 0.00000E+00
 -3
    1PSTEP                         2           1           1          
  100CL  101 1.000000000          20                     0    1           1
 -4  STRESS      6    1
 -5  SXX         1    4    1    1
 -5  SYY         1    4    2    2
 -5  SZZ         1    4    3    3
 -5  SXY         1    4    1    2
 -5  SYZ         1    4    2    3
 -5  SZX         1    4    3    1
 -1         9-4.99245E-07 9.99960E+01 2.99988E+01-2.95785E-07 1.10751E-12 1.44400E-12
 -1        10-4.99243E-07 1.00005E+02 3.00015E+01-2.95785E-07-8.94303E-13 1.70120E-14
 -1        11-4.99245E-07 9.99960E+01 2.99988E+01-2.95785E-07-5.26079E-13-6.11498E-13
 -1        12-4.99064E-07 9.99960E+01 2.99988E+01 2.95918E-07-1.91116E-12-2.63844E-12
 -1        13-4.99063E-07 1.00005E+02 3.00015E+01 2.95918E-07 1.82369E-13-1.20805E-12
 -1        14-4.99064E-07 9.99960E+01 2.99988E+01 2.95918E-07 1.17188E-12-5.03882E-13
 -1        15 8.33944E-07 9.99960E+01 2.99988E+01 1.03703E-06-4.38370E-12 1.23065E-12
 -1        16 8.33945E-07 1.00005E+02 3.00015E+01 1.03703E-06-9.01840E-13-1.09655E-12
 -1        17 8.33944E-07 9.99960E+01 2.99988E+01 1.03703E-06 4.89981E-12-2.53734E-12
 -1        18 8.34112E-07 9.99960E+01 2.99988E+01-1.03696E-06 1.82884E-12 2.10575E-12
 -1        19 8.34113E-07 1.00005E+02 3.00015E+01-1.03696E-06-1.45312E-12 4.93382E-13
 -1        20 8.34112E-07 9.99960E+01 2.99988E+01-1.03696E-06-7.69818E-12-1.48092E-12
 -1        21-7.58611E-07 1.00005E+02 3.00015E+01-6.66387E-07-2.45094E-12 1.53156E-13
 -1        23-7.58611E-07 1.00005E+02 3.00015E+01-6.66387E-07 1.85925E-12-5.72798E-13
 -1        24 1.50883E-06 1.00005E+02 3.00015E+01 3.35080E-11-8.63956E-13 2.05649E-13
 -1        26 1.50883E-06 1.00005E+02 3.00015E+01 3.34845E-11 1.36562E-12-9.87353E-13
 -1        27-7.58605E-07 1.00005E+02 3.00015E+01 6.66458E-07-1.05753E-12 2.23469E-12
 -1        29-7.58605E-07 1.00005E+02 3.00015E+01 6.66458E-07-1.65375E-14-4.76172E-13
 -1        30 1.75652E-07 1.00005E+02 3.00015E+01 6.12360E-11 1.81028E-12 9.27017E-13
 -1        32 1.75652E-07 1.00005E+02 3.00015E+01 6.12330E-11-1.09759E-12-1.31680E-12
 -3
    1PSTEP                         3           1           1          
  100CL  101 1.000000000          20                     0    1           1
 -4  TOSTRAIN    6    1
 -5  EXX         1    4    1    1
 -5  EYY         1    4    2    2
 -5  EZZ         1    4    3    3
 -5  EXY         1    4    1    2
 -5  EYZ         1    4    2    3
 -5  EZX         1    4    3    1
 -1         9-1.85707E-04 4.33316E-04 0.00000E+00-1.83105E-12 6.85604E-18 8.93905E-18
 -1        10-1.85724E-04 4.33355E-04 0.00000E+00-1.83105E-12-5.53616E-18 1.05312E-19
 -1        11-1.85707E-04 4.33316E-04 0.00000E+00-1.83105E-12-3.25668E-18-3.78546E-18
 -1        12-1.85707E-04 4.33316E-04 0.00000E+00 1.83187E-12-1.18310E-17-1.63332E-17
 -1        13-1.85724E-04 4.33355E-04 0.00000E+00 1.83187E-12 1.12895E-18-7.47843E-18
 -1        14-1.85707E-04 4.33316E-04 0.00000E+00 1.83187E-12 7.25447E-18-3.11927E-18
 -1        15-1.85707E-04 4.33316E-04 0.00000E+00 6.41973E-12-2.71372E-17 7.61829E-18
 -1        16-1.85724E-04 4.33355E-04 0.00000E+00 6.41973E-12-5.58282E-18-6.78818E-18
 -1        17-1.85707E-04 4.33316E-04 0.00000E+00 6.41973E-12 3.03322E-17-1.57074E-17
 -1        18-1.85707E-04 4.33316E-04 0.00000E+00-6.41925E-12 1.13214E-17 1.30356E-17
 -1        19-1.85724E-04 4.33355E-04 0.00000E+00-6.41925E-12-8.99550E-18 3.05427E-18
 -1        20-1.85707E-04 4.33316E-04 0.00000E+00-6.41925E-12-4.76554E-17-9.16762E-18
 -1        21-1.85724E-04 4.33355E-04 0.00000E+00-4.12525E-12-1.51725E-17 9.48109E-19
 -1        23-1.85724E-04 4.33355E-04 0.00000E+00-4.12525E-12 1.15096E-17-3.54590E-18
 -1        24-1.85724E-04 4.33355E-04 0.00000E+00 2.07430E-16-5.34830E-18 1.27307E-18
 -1        26-1.85724E-04 4.33355E-04 0.00000E+00 2.07285E-16 8.45383E-18-6.11218E-18
 -1        27-1.85724E-04 4.33355E-04 0.00000E+00 4.12570E-12-6.54659E-18 1.38338E-17
 -1        29-1.85724E-04 4.33355E-04 0.00000E+00 4.12570E-12-1.02375E-19-2.94773E-18
 -1        30-1.85724E-04 4.33355E-04 0.00000E+00 3.79080E-16 1.12065E-17 5.73868E-18
 -1        32-1.85724E-04 4.33355E-04 0.00000E+00 3.79061E-16-6.79463E-18-8.15162E-18
 -3
    1PSTEP                         4           1           1          
  100CL  101 1.000000000          20                     0    1           1
 -4  FORC        4    1
 -5  F1          1    2    1    0
 -5  F2          1    2    2    0
 -5  F3          1    2    3    0
 -5  ALL         1    2    0    0    1ALL
 -1         9-2.45024E-13 8.33333E-02 2.50000E+00
 -1        10-2.34534E-13-3.33333E-01 4.44089E-16
 -1        11-2.82387E-13 8.33333E-02-2.50000E+00
 -1        12-6.11026E-14 8.33333E-02 2.50000E+00
 -1        13 5.05090E-13-3.33333E-01-3.10862E-15
 -1        14-1.19738E-13 8.33333E-02-2.50000E+00
 -1        15-1.57344E-13-8.33333E-02 2.50000E+00
 -1        16 4.53544E-13 3.33333E-01-1.77636E-15
 -1        17-2.09362E-13-8.33333E-02-2.50000E+00
 -1        18-1.10686E-13-8.33333E-02 2.50000E+00
 -1        19 3.82606E-13 3.33333E-01 8.88178E-16
 -1        20-1.46846E-13-8.33333E-02-2.50000E+00
 -1        21 2.89234E-15 8.45293E-14-1.00000E+01
 -1        23 6.01717E-14 1.96596E-13 1.00000E+01
 -1        24 9.67716E-15 3.33333E-01-1.00000E+01
 -1        26 6.53342E-14 3.33333E-01 1.00000E+01
 -1        27-2.90794E-14 1.63894E-13-1.00000E+01
 -1        29 1.50824E-13 2.33485E-13 1.00000E+01
 -1        30-5.93620E-14-3.33333E-01-1.00000E+01
 -1        32 2.53264E-14-3.33333E-01 1.00000E+01
 -3
 9999
