    1C
    1UUSER                                                              
    1UDATE              04.march.2015                                   
    1UTIME              20:06:15                                        
    1UHOST                                                              
    1UPGM               CalculiX                                        
    1UDIR                                                               
    1UDBN                                                               
    1UMAT    1EL                                                        
    2C                             8                                     1
 -1         5 1.00000E+00 0.00000E+00-5.00000E-03
 -1         7 1.00000E+00 0.00000E+00 5.00000E-03
 -1         8 0.00000E+00 0.00000E+00-5.00000E-03
 -1        10 0.00000E+00 0.00000E+00 5.00000E-03
 -1        11 0.00000E+00 1.00000E+00-5.00000E-03
 -1        13 0.00000E+00 1.00000E+00 5.00000E-03
 -1        14 1.00000E+00 1.00000E+00-5.00000E-03
 -1        16 1.00000E+00 1.00000E+00 5.00000E-03
 -3
    3C                             1                                     1
 -1         1    1    0    1
 -2         5        14        11         8         7        16        13        10
 -3
    1PSTEP                         1           1           1          
  100CL  101 1.000000000           8                     0    1           1
 -4  DISP        4    1
 -5  D1          1    2    1    0
 -5  D2          1    2    2    0
 -5  D3          1    2    3    0
 -5  ALL         1    2    0    0    1ALL
 -1         5 0.00000E+00 0.00000E+00 0.00000E+00
 -1         7 0.00000E+00 0.00000E+00 0.00000E+00
 -1         8 1.85714E-04 0.00000E+00 0.00000E+00
 -1        10 1.85714E-04 0.00000E+00 0.00000E+00
 -1        11 1.85714E-04 4.33333E-04 0.00000E+00
 -1        13 1.85714E-04 4.33333E-04 0.00000E+00
 -1        14 1.25666E-16 4.33333E-04 0.00000E+00
 -1        16 1.25666E-16 4.33333E-04 0.00000E+00
 -3
    1PSTEP                         2           1           1          
  100CL  101 1.000000000           8                     0    1           1
 -4  STRESS      6    1
 -5  SXX         1    4    1    1
 -5  SYY         1    4    2    2
 -5  SZZ         1    4    3    3
 -5  SXY         1    4    1    2
 -5  SYZ         1    4    2    3
 -5  SZX         1    4    3    1
 -1         5-3.12299E-11 9.99960E+01 2.99988E+01 1.01487E-11-1.65589E-13-1.67240E-13
 -1         7-3.12299E-11 9.99960E+01 2.99988E+01 1.01481E-11-1.65589E-13-3.88622E-14
 -1         8-1.43079E-11 9.99960E+01 2.99988E+01-2.11294E-12-8.56871E-14 3.03747E-13
 -1        10-1.43079E-11 9.99960E+01 2.99988E+01-2.11152E-12-8.56871E-14 2.69348E-13
 -1        11 2.85939E-11 9.99960E+01 2.99988E+01-1.33947E-11 4.10776E-13-1.45034E-13
 -1        13 2.85939E-11 9.99960E+01 2.99988E+01-1.33969E-11 4.10776E-13-1.21739E-13
 -1        14 1.16719E-11 9.99960E+01 2.99988E+01-1.13748E-12 2.78333E-13 7.21697E-14
 -1        16 1.16719E-11 9.99960E+01 2.99988E+01-1.13606E-12 2.78333E-13-1.47699E-14
 -3
    1PSTEP                         3           1           1          
  100CL  101 1.000000000           8                     0    1           1
 -4  FORC        4    1
 -5  F1          1    2    1    0
 -5  F2          1    2    2    0
 -5  F3          1    2    3    0
 -5  ALL         1    2    0    0    1ALL
 -1         5-2.45775E-14-2.50000E-01-7.50000E+00
 -1         7-1.98604E-14-2.50000E-01 7.50000E+00
 -1         8 1.08389E-14-2.50000E-01-7.50000E+00
 -1        10 4.98405E-14-2.50000E-01 7.50000E+00
 -1        11-2.35800E-14 2.50000E-01-7.50000E+00
 -1        13-2.39188E-14 2.50000E-01 7.50000E+00
 -1        14 1.76153E-14 2.50000E-01-7.50000E+00
 -1        16 1.36420E-14 2.50000E-01 7.50000E+00
 -3
 9999
