
 forces (fx,fy,fz) for set N1 and time  0.1000000E+01

        14  0.000000E+00  0.000000E+00  0.000000E+00

 displacements (vx,vy,vz) for set N1 and time  0.1000000E+01

        14  1.000000E-02  0.000000E+00  0.000000E+00
