
 displacements (vx,vy,vz) for set NALL and time  0.1000000E+01

         1  3.706023E-05 -1.254755E-04 -1.062274E-04
         2 -6.458833E-06 -5.847078E-05 -1.014950E-04
         3 -4.571056E-06 -5.639819E-05 -5.039448E-05
         4  2.721276E-05 -1.218712E-04 -4.577069E-05
         5  6.486764E-05 -1.307401E-04 -2.280241E-04
         6 -5.073717E-06 -5.598936E-05 -1.559628E-04
         7 -4.244893E-06 -5.621798E-05 -8.598415E-05
         8  4.345167E-05 -1.451926E-04 -1.338010E-04
         9  1.382789E-05 -9.113677E-05 -1.120136E-04
        10 -6.792506E-06 -5.718251E-05 -7.420515E-05
        11  1.037862E-05 -9.375948E-05 -5.227068E-05
        12  3.540635E-05 -1.243371E-04 -7.059460E-05
        13  5.377347E-05 -1.259988E-04 -1.418432E-04
        14 -5.655772E-06 -5.806450E-05 -1.249194E-04
        15 -4.292515E-06 -5.828187E-05 -6.601697E-05
        16  3.733570E-05 -1.287004E-04 -7.532539E-05
        17 -3.479911E-06 -9.207442E-05 -1.883512E-04
        18 -6.301605E-06 -5.656890E-05 -1.221946E-04
        19 -2.540719E-07 -8.703549E-05 -1.066219E-04
        20  5.788858E-05 -1.376505E-04 -1.904615E-04
        21 -1.580590E-06 -5.834878E-05 -8.553862E-06
        22  1.322009E-05 -1.169625E-04 -2.765345E-06
        23 -1.151960E-06 -5.796220E-05 -1.631550E-05
        24  6.202632E-06 -1.232620E-04 -2.342209E-05
        25 -1.816762E-06 -5.770504E-05 -2.807191E-05
        26  4.151187E-06 -9.018832E-05 -4.216769E-06
        27  1.779228E-05 -1.190768E-04 -2.925347E-05
        28 -1.731929E-06 -5.901043E-05 -1.222028E-05
        29  1.114365E-05 -1.175794E-04 -1.481312E-05
        30 -1.991774E-06 -5.599867E-05 -5.057587E-05
        31  3.173100E-06 -8.791941E-05 -2.286794E-05
        32  2.354102E-05 -1.361589E-04 -5.930284E-05
        33 -3.850183E-07 -5.992081E-05  3.769147E-05
        34  5.686468E-06 -1.158433E-04  4.276542E-05
        35 -1.509016E-07 -5.791906E-05  3.266578E-05
        36  3.512408E-06 -1.159057E-04  3.705518E-05
        37 -4.264431E-07 -5.905542E-05  1.280965E-05
        38  1.955263E-06 -8.748131E-05  4.104597E-05
        39  7.785474E-06 -1.160786E-04  1.709245E-05
        40 -2.837534E-07 -5.883129E-05  3.499825E-05
        41  5.014182E-06 -1.157115E-04  3.900768E-05
        42 -2.189253E-07 -5.856676E-05  8.212073E-06
        43  1.360779E-06 -8.801005E-05  3.701664E-05
        44  3.589830E-06 -1.179708E-04  8.881537E-06
        45 -6.424370E-05 -1.307595E-04 -2.291950E-04
        46  5.303782E-06 -5.598871E-05 -1.562494E-04
        47  4.477828E-06 -5.621612E-05 -8.617246E-05
        48 -4.287920E-05 -1.453835E-04 -1.346756E-04
        49  3.900975E-07 -1.356486E-04 -3.524944E-04
        50  7.113614E-08 -5.361812E-05 -1.589828E-04
        51  9.028113E-08 -5.279997E-05 -8.815135E-05
        52  3.340491E-07 -1.515746E-04 -2.089364E-04
        53  3.805264E-06 -9.211240E-05 -1.889127E-04
        54  6.527229E-06 -5.657260E-05 -1.224339E-04
        55  6.016017E-07 -8.702714E-05 -1.070381E-04
        56 -5.726398E-05 -1.377482E-04 -1.915976E-04
        57  1.381622E-06 -5.796709E-05 -1.639594E-05
        58 -5.754223E-06 -1.233209E-04 -2.349229E-05
        59  1.158906E-07 -5.612785E-05 -1.984739E-05
        60  2.231772E-07 -1.267338E-04 -1.662405E-05
        61  2.228336E-06 -5.599452E-05 -5.072566E-05
        62 -2.828749E-06 -8.793658E-05 -2.297944E-05
        63 -2.303928E-05 -1.362944E-04 -5.958578E-05
        64  3.950062E-07 -5.791959E-05  3.260562E-05
        65 -3.081101E-06 -1.159367E-04  3.697756E-05
        66  1.214282E-07 -5.858936E-05  3.300590E-05
        67  2.170031E-07 -1.151129E-04  3.340902E-05
        68  4.569874E-07 -5.857020E-05  8.145279E-06
        69 -1.015844E-06 -8.803113E-05  3.696142E-05
        70 -3.165303E-06 -1.180127E-04  8.818215E-06
        71 -3.679727E-05 -1.256055E-04 -1.067198E-04
        72  6.658657E-06 -5.847703E-05 -1.019383E-04
        73  4.794331E-06 -5.638783E-05 -5.075787E-05
        74 -2.687396E-05 -1.219943E-04 -4.611988E-05
        75 -5.340839E-05 -1.260888E-04 -1.425288E-04
        76  5.914636E-06 -5.806324E-05 -1.253456E-04
        77  4.546814E-06 -5.828069E-05 -6.632807E-05
        78 -3.692797E-05 -1.288626E-04 -7.582477E-05
        79 -1.342626E-05 -9.118777E-05 -1.126088E-04
        80  7.014931E-06 -5.718008E-05 -7.462149E-05
        81 -9.996244E-06 -9.381610E-05 -5.270995E-05
        82 -3.511833E-05 -1.244657E-04 -7.099919E-05
        83  1.831809E-06 -5.835165E-05 -8.827737E-06
        84 -1.279747E-05 -1.170562E-04 -3.024850E-06
        85  1.971306E-06 -5.901448E-05 -1.238628E-05
        86 -1.070709E-05 -1.176682E-04 -1.501753E-05
        87  2.040261E-06 -5.769861E-05 -2.837345E-05
        88 -3.817226E-06 -9.022760E-05 -4.474960E-06
        89 -1.738858E-05 -1.191899E-04 -2.960658E-05
        90  6.244838E-07 -5.993242E-05  3.749383E-05
        91 -5.259551E-06 -1.159150E-04  4.255574E-05
        92  5.261635E-07 -5.883732E-05  3.487564E-05
        93 -4.586429E-06 -1.157692E-04  3.888583E-05
        94  6.703591E-07 -5.906572E-05  1.258086E-05
        95 -1.614548E-06 -8.752080E-05  4.083207E-05
        96 -7.363672E-06 -1.161544E-04  1.686267E-05
        97 -5.789539E-06 -1.350228E-05 -6.436335E-05
        98 -4.533875E-06 -1.362113E-05 -3.534009E-05
        99 -3.233381E-06 -1.328001E-05 -6.834949E-05
       100 -2.608729E-06 -1.344010E-05 -3.858957E-05
       101 -1.060330E-05 -3.212551E-05 -8.950117E-05
       102 -5.524471E-06 -1.352997E-05 -4.987720E-05
       103 -7.737254E-06 -3.120750E-05 -4.696748E-05
       104 -5.853406E-06 -1.358714E-05 -6.447075E-05
       105 -4.558265E-06 -1.393141E-05 -3.548927E-05
       106 -4.690247E-06 -3.028448E-05 -1.080909E-04
       107 -3.131588E-06 -1.307785E-05 -5.395641E-05
       108 -4.064323E-06 -3.117138E-05 -6.039784E-05
       109 -2.196019E-06 -1.472991E-05 -7.619856E-06
       110 -1.210210E-06 -1.477319E-05 -9.321347E-06
       111 -3.427366E-06 -1.401123E-05 -2.125955E-05
       112 -2.762119E-06 -3.327218E-05 -8.930312E-06
       113 -1.936833E-06 -1.512164E-05 -7.828590E-06
       114 -1.986958E-06 -1.424539E-05 -2.358937E-05
       115 -1.762369E-06 -3.298229E-05 -1.338465E-05
       116 -1.118718E-06 -1.542619E-05  1.987072E-05
       117 -7.347166E-07 -1.557836E-05  1.925341E-05
       118 -1.380564E-06 -1.527405E-05  5.576792E-06
       119 -1.315477E-06 -3.448360E-05  2.972722E-05
       120 -1.091328E-06 -1.564114E-05  1.984402E-05
       121 -7.769222E-07 -1.531920E-05  4.754709E-06
       122 -7.484174E-07 -3.391328E-05  2.699309E-05
       123  3.277870E-06 -1.327234E-05 -6.843235E-05
       124  2.658685E-06 -1.343249E-05 -3.866146E-05
       125  2.744016E-08 -1.310637E-05 -7.056576E-05
       126  2.775498E-08 -1.367528E-05 -4.041969E-05
       127  4.806475E-06 -3.027273E-05 -1.082401E-04
       128  3.174736E-06 -1.306879E-05 -5.403851E-05
       129  4.186636E-06 -3.116426E-05 -6.050929E-05
       130  1.278089E-06 -1.476648E-05 -9.371716E-06
       131  3.322698E-08 -1.482238E-05 -9.677566E-06
       132  2.044976E-06 -1.423886E-05 -2.364781E-05
       133  1.901809E-06 -3.297673E-05 -1.345351E-05
       134  8.070476E-07 -1.557304E-05  1.921393E-05
       135  3.648668E-08 -1.517713E-05  1.884886E-05
       136  8.504209E-07 -1.531398E-05  4.713295E-06
       137  8.976463E-07 -3.391104E-05  2.694218E-05
       138  5.855880E-06 -1.348449E-05 -6.459943E-05
       139  4.597504E-06 -1.360674E-05 -3.554614E-05
       140  5.903621E-06 -1.357235E-05 -6.462920E-05
       141  4.612280E-06 -1.391603E-05 -3.562638E-05
       142  1.074325E-05 -3.211033E-05 -8.984799E-05
       143  5.586642E-06 -1.351381E-05 -5.010638E-05
       144  7.880558E-06 -3.118680E-05 -4.726210E-05
       145  2.262862E-06 -1.472000E-05 -7.776051E-06
       146  2.004907E-06 -1.511007E-05 -7.928943E-06
       147  3.495411E-06 -1.399868E-05 -2.144101E-05
       148  2.908814E-06 -3.326297E-05 -9.154594E-06
       149  1.193485E-06 -1.541774E-05  1.973132E-05
       150  1.164555E-06 -1.563269E-05  1.976215E-05
       151  1.452721E-06 -1.526533E-05  5.434277E-06
       152  1.465477E-06 -3.447829E-05  2.954927E-05
       153  0.000000E+00  0.000000E+00  0.000000E+00
       154  0.000000E+00  0.000000E+00  0.000000E+00
       155  0.000000E+00  0.000000E+00  0.000000E+00
       156  0.000000E+00  0.000000E+00  0.000000E+00
       157 -2.383133E-06 -3.070077E-06 -3.351120E-05
       158  0.000000E+00  0.000000E+00  0.000000E+00
       159 -1.923527E-06 -3.081123E-06 -1.894282E-05
       160  0.000000E+00  0.000000E+00  0.000000E+00
       161  0.000000E+00  0.000000E+00  0.000000E+00
       162 -1.576691E-06 -3.166072E-06 -3.314409E-05
       163  0.000000E+00  0.000000E+00  0.000000E+00
       164 -1.318893E-06 -3.218516E-06 -1.884210E-05
       165  0.000000E+00  0.000000E+00  0.000000E+00
       166  0.000000E+00  0.000000E+00  0.000000E+00
       167  0.000000E+00  0.000000E+00  0.000000E+00
       168 -1.039897E-06 -3.670242E-06 -4.422820E-06
       169  0.000000E+00  0.000000E+00  0.000000E+00
       170  0.000000E+00  0.000000E+00  0.000000E+00
       171 -6.331986E-07 -3.867477E-06 -4.541560E-06
       172  0.000000E+00  0.000000E+00  0.000000E+00
       173  0.000000E+00  0.000000E+00  0.000000E+00
       174  0.000000E+00  0.000000E+00  0.000000E+00
       175 -5.051723E-07 -4.006556E-06  1.003297E-05
       176  0.000000E+00  0.000000E+00  0.000000E+00
       177  0.000000E+00  0.000000E+00  0.000000E+00
       178 -4.258124E-07 -4.102978E-06  9.955469E-06
       179  0.000000E+00  0.000000E+00  0.000000E+00
       180  0.000000E+00  0.000000E+00  0.000000E+00
       181  0.000000E+00  0.000000E+00  0.000000E+00
       182  0.000000E+00  0.000000E+00  0.000000E+00
       183  1.584318E-06 -3.161802E-06 -3.318291E-05
       184  0.000000E+00  0.000000E+00  0.000000E+00
       185  1.328828E-06 -3.212486E-06 -1.887792E-05
       186  0.000000E+00  0.000000E+00  0.000000E+00
       187  0.000000E+00  0.000000E+00  0.000000E+00
       188  0.000000E+00  0.000000E+00  0.000000E+00
       189  6.537681E-07 -3.862594E-06 -4.566918E-06
       190  0.000000E+00  0.000000E+00  0.000000E+00
       191  0.000000E+00  0.000000E+00  0.000000E+00
       192  0.000000E+00  0.000000E+00  0.000000E+00
       193  4.490329E-07 -4.099500E-06  9.933516E-06
       194  0.000000E+00  0.000000E+00  0.000000E+00
       195  0.000000E+00  0.000000E+00  0.000000E+00
       196  0.000000E+00  0.000000E+00  0.000000E+00
       197  0.000000E+00  0.000000E+00  0.000000E+00
       198  2.392821E-06 -3.060414E-06 -3.361954E-05
       199  0.000000E+00  0.000000E+00  0.000000E+00
       200  1.935203E-06 -3.072533E-06 -1.904386E-05
       201  0.000000E+00  0.000000E+00  0.000000E+00
       202  0.000000E+00  0.000000E+00  0.000000E+00
       203  0.000000E+00  0.000000E+00  0.000000E+00
       204  1.058739E-06 -3.663175E-06 -4.504367E-06
       205  0.000000E+00  0.000000E+00  0.000000E+00
       206  0.000000E+00  0.000000E+00  0.000000E+00
       207  0.000000E+00  0.000000E+00  0.000000E+00
       208  5.281861E-07 -4.000871E-06  9.956262E-06
       209  0.000000E+00  0.000000E+00 -6.527199E-04
       210  0.000000E+00  0.000000E+00 -6.489207E-04
       211  0.000000E+00  0.000000E+00 -5.914453E-04
       212  0.000000E+00  0.000000E+00 -5.952287E-04
       213  2.276057E-06  5.164312E-05 -6.009435E-04
       214 -1.028005E-06  5.696690E-05 -5.858896E-04
       215 -7.965924E-07  5.685223E-05 -5.286932E-04
       216  2.470345E-06  5.155384E-05 -5.436412E-04
       217  0.000000E+00  0.000000E+00 -6.515368E-04
       218  0.000000E+00  0.000000E+00 -6.201544E-04
       219  0.000000E+00  0.000000E+00 -5.941026E-04
       220  0.000000E+00  0.000000E+00 -6.239875E-04
       221  8.677092E-07  2.582080E-05 -6.254139E-04
       222 -5.986750E-07  2.848728E-05 -6.183039E-04
       223 -4.741334E-07  2.842257E-05 -5.608704E-04
       224  9.793972E-07  2.577776E-05 -5.679694E-04
       225  1.542315E-06  5.493090E-05 -5.953817E-04
       226 -9.076861E-07  5.693682E-05 -5.572416E-04
       227  1.764775E-06  5.482172E-05 -5.381297E-04
       228  2.374567E-06  5.162542E-05 -5.722745E-04
       229  0.000000E+00  0.000000E+00 -5.339946E-04
       230  0.000000E+00  0.000000E+00 -5.376474E-04
       231 -5.387425E-07  5.652907E-05 -4.712469E-04
       232  2.689157E-06  5.131506E-05 -4.860954E-04
       233  0.000000E+00  0.000000E+00 -5.627148E-04
       234  0.000000E+00  0.000000E+00 -5.366187E-04
       235  0.000000E+00  0.000000E+00 -5.664486E-04
       236 -3.442068E-07  2.827610E-05 -5.034209E-04
       237  1.094836E-06  2.564878E-05 -5.104005E-04
       238 -6.644788E-07  5.669663E-05 -5.000554E-04
       239  2.016913E-06  5.454039E-05 -4.806480E-04
       240  2.564087E-06  5.143180E-05 -5.149157E-04
       241  0.000000E+00  0.000000E+00 -4.766568E-04
       242  0.000000E+00  0.000000E+00 -4.802881E-04
       243 -2.955801E-07  5.643059E-05 -4.136218E-04
       244  2.891645E-06  5.124186E-05 -4.285823E-04
       245  0.000000E+00  0.000000E+00 -5.052604E-04
       246  0.000000E+00  0.000000E+00 -4.793004E-04
       247  0.000000E+00  0.000000E+00 -5.088929E-04
       248 -2.238966E-07  2.820102E-05 -4.460300E-04
       249  1.183896E-06  2.562067E-05 -4.530140E-04
       250 -4.167644E-07  5.644655E-05 -4.424102E-04
       251  2.247691E-06  5.441857E-05 -4.231288E-04
       252  2.810982E-06  5.125413E-05 -4.572160E-04
       253 -1.709914E-06  1.032052E-04 -5.697835E-04
       254 -5.931544E-06  1.137614E-04 -5.140673E-04
       255 -5.347337E-06  1.135732E-04 -4.581992E-04
       256 -1.197448E-06  1.031096E-04 -5.129768E-04
       257  3.284641E-06  7.749838E-05 -5.812396E-04
       258 -2.131955E-06  8.541292E-05 -5.526394E-04
       259 -1.713923E-06  8.528695E-05 -4.957986E-04
       260  3.552825E-06  7.736560E-05 -5.241592E-04
       261 -1.848314E-06  1.095969E-04 -5.437093E-04
       262 -5.615812E-06  1.137498E-04 -4.858809E-04
       263 -1.380521E-06  1.094900E-04 -4.875055E-04
       264 -1.402446E-06  1.031726E-04 -5.414221E-04
       265 -4.824353E-06  1.132130E-04 -4.010027E-04
       266 -6.770554E-07  1.027311E-04 -4.553998E-04
       267 -1.325890E-06  8.477093E-05 -4.384038E-04
       268  3.896977E-06  7.696998E-05 -4.665875E-04
       269 -5.130106E-06  1.134246E-04 -4.299687E-04
       270 -9.060152E-07  1.092981E-04 -4.302256E-04
       271 -1.001941E-06  1.029331E-04 -4.843477E-04
       272 -4.510010E-06  1.127369E-04 -3.418320E-04
       273 -4.325571E-07  1.025509E-04 -3.973628E-04
       274 -1.086793E-06  8.463734E-05 -3.804532E-04
       275  4.310556E-06  7.677859E-05 -4.088174E-04
       276 -4.516575E-06  1.128609E-04 -3.708117E-04
       277 -6.168588E-07  1.091301E-04 -3.715697E-04
       278 -5.511394E-07  1.026132E-04 -4.264758E-04
       279 -4.077854E-05  1.537587E-04 -5.678666E-04
       280 -6.700142E-05  1.684911E-04 -4.035120E-04
       281 -6.474933E-05  1.701662E-04 -3.548961E-04
       282 -4.006783E-05  1.539725E-04 -5.116489E-04
       283 -1.190278E-05  1.284360E-04 -5.595531E-04
       284 -1.594787E-05  1.415781E-04 -4.653520E-04
       285 -1.563487E-05  1.415947E-04 -4.123076E-04
       286 -1.145123E-05  1.285269E-04 -5.036489E-04
       287 -6.109589E-05  1.622724E-04 -5.172816E-04
       288 -6.595470E-05  1.690437E-04 -3.798758E-04
       289 -5.952034E-05  1.631503E-04 -4.627743E-04
       290 -4.051881E-05  1.538107E-04 -5.397620E-04
       291 -6.395809E-05  1.737413E-04 -2.988695E-04
       292 -3.940964E-05  1.550660E-04 -4.544527E-04
       293 -1.501231E-05  1.420853E-04 -3.553969E-04
       294 -1.095999E-05  1.288605E-04 -4.464319E-04
       295 -6.418230E-05  1.718880E-04 -3.279403E-04
       296 -5.872572E-05  1.651418E-04 -4.056397E-04
       297 -3.961931E-05  1.544954E-04 -4.830401E-04
       298 -6.563470E-05  1.782070E-04 -2.294141E-04
       299 -3.904031E-05  1.552497E-04 -3.959191E-04
       300 -1.415379E-05  1.415867E-04 -2.923423E-04
       301 -1.058917E-05  1.291442E-04 -3.873065E-04
       302 -6.495714E-05  1.763269E-04 -2.671400E-04
       303 -5.939019E-05  1.670292E-04 -3.443425E-04
       304 -3.912319E-05  1.552366E-04 -4.245555E-04
       305  0.000000E+00  0.000000E+00 -6.439449E-04
       306  0.000000E+00  0.000000E+00 -5.863558E-04
       307 -1.046183E-05  5.721959E-05 -5.809679E-04
       308 -1.008399E-05  5.711260E-05 -5.236380E-04
       309  0.000000E+00  0.000000E+00 -6.461290E-04
       310  0.000000E+00  0.000000E+00 -6.150855E-04
       311  0.000000E+00  0.000000E+00 -5.885990E-04
       312 -5.152215E-06  2.861644E-05 -6.133265E-04
       313 -4.977909E-06  2.855666E-05 -5.557781E-04
       314 -5.803479E-06  5.772605E-05 -5.812061E-04
       315 -1.030053E-05  5.719865E-05 -5.522232E-04
       316 -5.495517E-06  5.761879E-05 -5.239281E-04
       317  0.000000E+00  0.000000E+00 -5.289332E-04
       318 -9.826515E-06  5.677929E-05 -4.662309E-04
       319  0.000000E+00  0.000000E+00 -5.576381E-04
       320  0.000000E+00  0.000000E+00 -5.311663E-04
       321 -4.855028E-06  2.840365E-05 -4.983605E-04
       322 -9.947203E-06  5.694830E-05 -4.950135E-04
       323 -5.233496E-06  5.728684E-05 -4.664672E-04
       324  0.000000E+00  0.000000E+00 -4.715005E-04
       325 -9.609428E-06  5.667464E-05 -4.085271E-04
       326  0.000000E+00  0.000000E+00 -5.001854E-04
       327  0.000000E+00  0.000000E+00 -4.737694E-04
       328 -4.738939E-06  2.832622E-05 -4.408765E-04
       329 -9.721558E-06  5.669201E-05 -4.373872E-04
       330 -4.998823E-06  5.720292E-05 -4.088204E-04
       331 -1.691978E-05  1.141108E-04 -5.094971E-04
       332 -1.622805E-05  1.139962E-04 -4.535559E-04
       333 -1.506488E-05  8.579526E-05 -5.478057E-04
       334 -1.456327E-05  8.564576E-05 -4.908435E-04
       335 -1.157781E-05  1.153622E-04 -4.975592E-04
       336 -1.654749E-05  1.141033E-04 -4.812943E-04
       337 -1.103253E-05  1.151109E-04 -4.420304E-04
       338 -1.558069E-05  1.136485E-04 -3.963942E-04
       339 -1.412890E-05  8.512825E-05 -4.335003E-04
       340 -1.580267E-05  1.138924E-04 -4.253362E-04
       341 -1.041420E-05  1.145745E-04 -3.849453E-04
       342 -1.507874E-05  1.131597E-04 -3.372013E-04
       343 -1.370655E-05  8.498480E-05 -3.754955E-04
       344 -1.547040E-05  1.132841E-04 -3.662139E-04
       345 -1.000533E-05  1.138502E-04 -3.256147E-04
       346  3.437246E-05  1.688018E-04 -4.014727E-04
       347  3.336566E-05  1.706962E-04 -3.526893E-04
       348 -1.262703E-05  1.417972E-04 -4.616185E-04
       349 -1.095877E-05  1.420641E-04 -4.084325E-04
       350 -1.592818E-05  1.684869E-04 -3.655483E-04
       351  3.337660E-05  1.694865E-04 -3.777054E-04
       352 -1.549812E-05  1.702510E-04 -3.183715E-04
       353  3.404023E-05  1.742246E-04 -2.967005E-04
       354 -1.032586E-05  1.425650E-04 -3.515429E-04
       355  3.362440E-05  1.723703E-04 -3.257357E-04
       356 -1.476852E-05  1.741874E-04 -2.619426E-04
       357  3.675746E-05  1.786736E-04 -2.273249E-04
       358 -1.020360E-05  1.420571E-04 -2.885134E-04
       359  3.558782E-05  1.768036E-04 -2.650091E-04
       360 -1.425079E-05  1.789314E-04 -1.882429E-04
       361  0.000000E+00  0.000000E+00 -6.371302E-04
       362  0.000000E+00  0.000000E+00 -5.795435E-04
       363 -1.282935E-05  5.246220E-05 -5.854953E-04
       364 -1.234568E-05  5.230253E-05 -5.281352E-04
       365  0.000000E+00  0.000000E+00 -6.414429E-04
       366  0.000000E+00  0.000000E+00 -6.082249E-04
       367  0.000000E+00  0.000000E+00 -5.838095E-04
       368 -6.158521E-06  2.622415E-05 -6.098700E-04
       369 -5.947114E-06  2.614841E-05 -5.523322E-04
       370 -1.262665E-05  5.546630E-05 -5.853383E-04
       371 -1.249997E-05  5.240905E-05 -5.566617E-04
       372 -1.229139E-05  5.534663E-05 -5.279040E-04
       373  0.000000E+00  0.000000E+00 -5.222739E-04
       374 -1.208757E-05  5.197811E-05 -4.709423E-04
       375  0.000000E+00  0.000000E+00 -5.509183E-04
       376  0.000000E+00  0.000000E+00 -5.264477E-04
       377 -5.826869E-06  2.598623E-05 -4.950853E-04
       378 -1.217196E-05  5.214381E-05 -4.995932E-04
       379 -1.201786E-05  5.502001E-05 -4.705706E-04
       380  0.000000E+00  0.000000E+00 -4.648370E-04
       381 -1.186854E-05  5.188749E-05 -4.133719E-04
       382  0.000000E+00  0.000000E+00 -4.935949E-04
       383  0.000000E+00  0.000000E+00 -4.689720E-04
       384 -5.697639E-06  2.594967E-05 -4.376257E-04
       385 -1.199980E-05  5.190259E-05 -4.421440E-04
       386 -1.181443E-05  5.488491E-05 -4.129282E-04
       387 -1.894491E-05  1.048900E-04 -5.544350E-04
       388 -1.826222E-05  1.047125E-04 -4.977321E-04
       389 -1.873830E-05  7.867363E-05 -5.658615E-04
       390 -1.826892E-05  7.854187E-05 -5.087952E-04
       391 -2.043129E-05  1.106903E-04 -5.340454E-04
       392 -1.902372E-05  1.048957E-04 -5.258994E-04
       393 -1.913507E-05  1.104864E-04 -4.777049E-04
       394 -1.798635E-05  1.039596E-04 -4.406079E-04
       395 -1.792146E-05  7.794253E-05 -4.516141E-04
       396 -1.805057E-05  1.042906E-04 -4.693528E-04
       397 -1.874632E-05  1.101712E-04 -4.206254E-04
       398 -1.745175E-05  1.037216E-04 -3.826119E-04
       399 -1.775021E-05  7.771634E-05 -3.938310E-04
       400 -1.772069E-05  1.037916E-04 -4.117886E-04
       401 -1.819427E-05  1.099529E-04 -3.619446E-04
       402  0.000000E+00  1.594094E-04 -5.506794E-04
       403  1.100134E-05  1.557068E-04 -4.966813E-04
       404 -1.671270E-05  1.319360E-04 -5.436390E-04
       405 -1.280476E-05  1.303847E-04 -4.887747E-04
       406  2.459874E-05  1.633783E-04 -5.086719E-04
       407  8.981530E-06  1.575631E-04 -5.234562E-04
       408  2.856865E-05  1.643651E-04 -4.535333E-04
       409  1.138734E-05  1.565652E-04 -4.397524E-04
       410 -1.196250E-05  1.302919E-04 -4.319855E-04
       411  1.119354E-05  1.560875E-04 -4.682610E-04
       412  2.938314E-05  1.660955E-04 -3.967107E-04
       413  1.215892E-05  1.566109E-04 -3.813689E-04
       414 -1.145147E-05  1.304478E-04 -3.729598E-04
       415  1.172164E-05  1.566316E-04 -4.099769E-04
       416  3.103805E-05  1.679744E-04 -3.354576E-04
