
 displacements (vx,vy,vz) for set NALL and time  0.1000000E+01

         1  4.064321E-06  0.000000E+00  0.000000E+00
         2  4.065095E-06  1.000000E-01  5.479809E+02
         3  4.065095E-06  0.000000E+00  0.000000E+00
         4  4.069503E-06  9.907926E-02  5.499438E+02
         5  4.069503E-06  0.000000E+00  0.000000E+00
         6  4.065625E-06  9.906510E-02  5.499438E+02
         7  4.065625E-06  0.000000E+00  0.000000E+00
         8  4.065447E-06  9.849970E-02  5.479170E+02
         9  4.065447E-06  0.000000E+00  0.000000E+00
        10  4.065649E-06  9.746777E-02  5.478720E+02
        11  4.065649E-06  0.000000E+00  0.000000E+00
        12  4.066478E-06  9.610867E-02  5.478098E+02
        13  4.066478E-06  7.874324E-01  0.000000E+00
        14  4.066185E-06  9.509346E-02  5.477608E+02
        15  4.066185E-06  0.000000E+00  0.000000E+00
        16  4.067198E-06  9.492566E-02  5.477530E+02
        17  4.067198E-06  0.000000E+00  0.000000E+00
        18  4.065500E-06  9.467609E-02  5.477397E+02
        19  4.065500E-06  0.000000E+00  0.000000E+00
        20  4.072888E-06  2.372036E-02  4.689485E+02
        21  4.072888E-06  0.000000E+00  0.000000E+00
        22  4.064321E-06  1.000000E-02  5.467961E+02
        23  4.064321E-06  0.000000E+00  0.000000E+00

 temperatures for set NALL and time  0.1000000E+01

         1  0.000000E+00
         2  5.500000E+02
         3  0.000000E+00
         4  5.500000E+02
         5  0.000000E+00
         6  5.500000E+02
         7  0.000000E+00
         8  5.500000E+02
         9  0.000000E+00
        10  5.500000E+02
        11  0.000000E+00
        12  5.500000E+02
        13  0.000000E+00
        14  5.500000E+02
        15  0.000000E+00
        16  5.500000E+02
        17  0.000000E+00
        18  5.500000E+02
        19  0.000000E+00
        20  5.500000E+02
        21  0.000000E+00
        22  5.500000E+02
        23  0.000000E+00
