
 displacements (vx,vy,vz) for set NS_ALL and time  0.1000000E+01

        10  0.000000E+00 -1.387881E-22  0.000000E+00
        20 -2.981285E-16  1.137921E-02  7.079611E-13
        30 -5.936549E-16  4.533338E-02  2.889249E-12
         4 -3.019503E-16  1.018625E-01  6.537850E-12
         5 -2.713758E-16  1.809666E-01  1.153936E-11

 displacements (vx,vy,vz) for set NS_ALL and time  0.2000000E+01

        10  9.388513E-18  1.346820E-03 -7.191017E-14
        20  8.471177E-18  3.008807E-04 -1.887213E-14
        30  0.000000E+00 -6.829390E-24  0.000000E+00
         4  4.027811E-17  1.098661E-02  2.871641E-13
         5  6.185373E-17  4.380312E-02  1.121358E-12
