
 displacements (vx,vy,vz) for set NS_ALL and time  0.1000000E+01

        10  0.000000E+00 -1.387881E-22  0.000000E+00
        20 -2.981285E-16  1.137921E-02  7.079611E-13
        30 -5.936549E-16  4.533338E-02  2.889249E-12
         4 -3.019503E-16  1.018625E-01  6.537850E-12
         5 -2.713758E-16  1.809666E-01  1.153936E-11

 displacements (vx,vy,vz) for set NS_ALL and time  0.2000000E+01

        10  0.000000E+00  1.064260E-23  0.000000E+00
        20 -1.020827E-16  3.141369E-04  7.568653E-13
        30 -1.934352E-16  1.373332E-03  2.993659E-12
         4 -1.370974E-16  1.372002E-02  6.276871E-12
         5 -1.196417E-16  4.789660E-02  1.016890E-11
