
 displacements (vx,vy,vz) for set NS_ALL and time  0.1000000E+01

        10  6.062859E-12  9.736576E-13  0.000000E+00
        20 -1.879264E-04  7.532929E-03 -2.774656E-06
        30 -1.483064E-03  2.984793E-02 -1.111812E-05
         4 -4.988255E-03  6.687996E-02 -2.583162E-05
         5 -1.177680E-02  1.183673E-01 -4.767377E-05

 displacements (vx,vy,vz) for set NS_ALL and time  0.2000000E+01

        10 -1.706292E-13 -2.256597E-14  5.293956E-23
        20 -3.210735E-06  2.349149E-04 -2.654867E-06
        30  9.298504E-06  1.046423E-03 -1.061814E-05
         4 -2.222864E-04  9.381391E-03 -2.684961E-05
         5 -1.555368E-03  3.207959E-02 -5.435617E-05
