
 displacements (vx,vy,vz) for set NALL and time  0.7200000E+00

         2  0.000000E+00  0.000000E+00  0.000000E+00
        10  2.459355E-05  0.000000E+00  0.000000E+00
        11  1.229695E-05 -1.972814E-09  0.000000E+00
        12  8.540203E-06  5.087661E-06  0.000000E+00
        13  1.707936E-05  1.017955E-05  0.000000E+00
        33  4.025968E-05  5.126196E-05  5.999538E-05
        34  8.052827E-05  1.025237E-04  1.200000E-04
        93  3.314066E-05  5.085028E-06  0.000000E+00
        95  4.168775E-05  1.017325E-05  0.000000E+00
        96  2.938462E-05  1.017402E-05  0.000000E+00
       103  6.486037E-05  5.125781E-05  5.997966E-05
       105  1.051367E-04  1.025174E-04  1.200000E-04
       106  9.283140E-05  1.025230E-04  1.200000E-04
       132  5.735565E-05  6.143918E-05  6.002034E-05
       133  8.907535E-05  1.076120E-04  1.200000E-04
       134  9.762247E-05  1.126970E-04  1.200000E-04
       219  8.195633E-05  6.143503E-05  6.000462E-05
       220  1.136758E-04  1.076093E-04  1.200000E-04
       222  1.222160E-04  1.126970E-04  1.200000E-04
       223  1.099191E-04  1.126990E-04  1.200000E-04

 forces (fx,fy,fz) for set NALL and time  0.7200000E+00

         2  6.935329E-12 -8.172697E-12  5.180846E-01
        10  1.574655E-11  1.364337E-11  5.181953E-01
        11 -2.014821E-11 -2.164482E-11 -2.072105E+00
        12  3.470693E-11  5.570939E-11 -2.072886E+00
        13 -1.351630E-11  1.161951E-11  5.178449E-01
        33 -2.184587E-11  3.141325E-12 -1.471336E-12
        34  1.189486E-11  3.099536E-13 -5.180894E-01
        93 -1.186617E-11 -1.605286E-11 -2.072240E+00
        95 -1.189389E-11 -3.108545E-13  5.180894E-01
        96  5.220872E-11  6.209977E-11 -2.073034E+00
       103 -6.111393E-11 -3.999740E-11  5.819817E-11
       105  1.351730E-11 -1.162011E-11 -5.178449E-01
       106 -5.221278E-11 -6.209911E-11  2.073034E+00
       132  6.111502E-11  3.999925E-11 -5.819668E-11
       133  1.186514E-11  1.605558E-11  2.072240E+00
       134 -1.574511E-11 -1.142745E-11 -5.181953E-01
       219  2.184706E-11 -3.142567E-12  1.470907E-12
       220 -3.470726E-11 -5.571034E-11  2.072886E+00
       222 -6.933711E-12  5.954662E-12 -5.180846E-01
       223  2.014632E-11  2.164540E-11  2.072105E+00

 stresses (elem, integ.pnt.,sxx,syy,szz,sxy,sxz,syz) for set EALL and time  0.7200000E+00

         1   1 -9.244437E-04 -7.984861E-04  2.486068E+01 -3.206971E-04  1.545742E-03  1.090151E-03
         1   2 -1.037782E-03 -7.058760E-04  2.486618E+01 -2.938248E-04 -2.955484E-04  5.921035E-04
         1   3 -9.358147E-04 -7.757984E-04  2.487189E+01 -4.430879E-04 -1.839953E-03 -1.924519E-04
         1   4 -6.072357E-04 -5.844766E-04  2.486873E+01 -5.538602E-04  2.546233E-04  1.333444E-04
         1   5 -6.853027E-04 -5.749140E-04  2.487404E+01 -4.945029E-04 -1.100818E-03 -4.940132E-04
         1   6 -5.480649E-04 -7.278839E-04  2.487956E+01 -6.112808E-04 -2.159374E-03 -1.407878E-03
         1   7 -4.521730E-04 -7.131904E-04  2.487696E+01 -3.719253E-04 -9.669891E-04 -1.226181E-03
         1   8 -4.949691E-04 -7.866753E-04  2.488207E+01 -2.800828E-04 -1.836581E-03 -1.982848E-03
         1   9 -3.224605E-04 -1.022693E-03  2.488739E+01 -3.643756E-04 -2.409288E-03 -3.026023E-03
         1  10  8.852547E-04  6.987526E-04  2.487128E+01  6.207438E-04  1.816072E-03  5.743591E-04
         1  11  7.423314E-04  8.630663E-04  2.487137E+01  6.763264E-04  1.181780E-03  8.469227E-04
         1  12  8.147129E-04  8.648475E-04  2.487167E+01  5.557736E-04  8.443741E-04  8.329787E-04
         1  13  9.310564E-04  9.531617E-04  2.487139E+01  3.807096E-04  1.295470E-03  9.050280E-04
         1  14  8.234040E-04  1.034428E-03  2.487128E+01  4.687773E-04  1.147027E-03  1.048282E-03
         1  15  9.310564E-04  9.531617E-04  2.487139E+01  3.807096E-04  1.295470E-03  9.050280E-04
         1  16  8.147129E-04  8.648475E-04  2.487167E+01  5.557736E-04  8.443741E-04  8.329787E-04
         1  17  7.423314E-04  8.630663E-04  2.487137E+01  6.763263E-04  1.181780E-03  8.469227E-04
         1  18  8.852547E-04  6.987526E-04  2.487128E+01  6.207438E-04  1.816072E-03  5.743591E-04
         1  19 -3.224605E-04 -1.022693E-03  2.488739E+01 -3.643756E-04 -2.409288E-03 -3.026023E-03
         1  20 -4.949691E-04 -7.866753E-04  2.488207E+01 -2.800828E-04 -1.836581E-03 -1.982848E-03
         1  21 -4.521730E-04 -7.131904E-04  2.487696E+01 -3.719253E-04 -9.669891E-04 -1.226181E-03
         1  22 -5.480649E-04 -7.278839E-04  2.487956E+01 -6.112808E-04 -2.159374E-03 -1.407878E-03
         1  23 -6.853027E-04 -5.749140E-04  2.487404E+01 -4.945028E-04 -1.100818E-03 -4.940132E-04
         1  24 -6.072357E-04 -5.844765E-04  2.486873E+01 -5.538602E-04  2.546233E-04  1.333444E-04
         1  25 -9.358147E-04 -7.757984E-04  2.487189E+01 -4.430878E-04 -1.839953E-03 -1.924519E-04
         1  26 -1.037782E-03 -7.058760E-04  2.486618E+01 -2.938248E-04 -2.955485E-04  5.921035E-04
         1  27 -9.244437E-04 -7.984860E-04  2.486068E+01 -3.206970E-04  1.545742E-03  1.090151E-03

 displacements (vx,vy,vz) for set NALL and time  0.1440000E+01

         2  0.000000E+00  0.000000E+00  0.000000E+00
        10  4.917649E-05  0.000000E+00  0.000000E+00
        11  2.458893E-05 -7.886643E-09  0.000000E+00
        12  1.706066E-05  1.017913E-05  0.000000E+00
        13  3.411714E-05  2.037517E-05  0.000000E+00
        33  8.047791E-05  1.024469E-04  1.199815E-04
        34  1.609914E-04  2.048930E-04  2.400000E-04
        93  6.626477E-05  1.016860E-05  0.000000E+00
        95  8.335294E-05  2.034996E-05  0.000000E+00
        96  5.873929E-05  2.035306E-05  0.000000E+00
       103  1.296829E-04  1.024302E-04  1.199187E-04
       105  2.102272E-04  2.048678E-04  2.400000E-04
       106  1.856050E-04  2.048899E-04  2.400000E-04
       132  1.146614E-04  1.228127E-04  1.200813E-04
       133  1.780796E-04  2.150743E-04  2.400000E-04
       134  1.951678E-04  2.252429E-04  2.400000E-04
       219  1.638664E-04  1.227961E-04  1.200185E-04
       220  2.272837E-04  2.150638E-04  2.400000E-04
       222  2.443443E-04  2.252429E-04  2.400000E-04
       223  2.197554E-04  2.252508E-04  2.400000E-04

 forces (fx,fy,fz) for set NALL and time  0.1440000E+01

         2 -1.951178E-15  2.787867E-15  1.036403E+00
        10 -7.105281E-16  2.206690E-17  1.036846E+00
        11  3.307389E-15  3.919772E-16 -4.144680E+00
        12  1.706924E-16 -5.393865E-15 -4.147803E+00
        13  1.115813E-15  2.269777E-15  1.035445E+00
        33  3.099643E-15 -3.516949E-15 -8.296518E-16
        34 -1.263315E-15  3.473330E-15 -1.036423E+00
        93 -4.930490E-16 -1.280436E-15 -4.145217E+00
        95  2.679804E-15  2.147229E-17  1.036423E+00
        96 -1.867303E-15  8.402770E-16 -4.148396E+00
       103  3.182222E-15  5.300855E-15 -1.345560E-15
       105  6.203192E-16  1.634591E-15 -1.035445E+00
       106  8.179034E-15  1.118526E-15  4.148396E+00
       132 -4.670120E-15 -4.482634E-15  2.976108E-15
       133 -2.207993E-15 -1.246985E-14  4.145217E+00
       134  1.397509E-15  3.967218E-15 -1.036846E+00
       219 -3.998919E-15  1.021847E-15 -1.438780E-15
       220 -3.619532E-15  1.754908E-15  4.147803E+00
       222  2.178318E-15  9.408304E-16 -1.036403E+00
       223 -5.148532E-15  1.598646E-15  4.144680E+00

 stresses (elem, integ.pnt.,sxx,syy,szz,sxy,sxz,syz) for set EALL and time  0.1440000E+01

         1   1 -3.694660E-03 -3.189548E-03  4.971782E+01 -1.280939E-03  6.177111E-03  4.354372E-03
         1   2 -4.148136E-03 -2.819521E-03  4.973983E+01 -1.173997E-03 -1.184504E-03  2.364931E-03
         1   3 -3.741145E-03 -3.100027E-03  4.976269E+01 -1.770944E-03 -7.359017E-03 -7.704170E-04
         1   4 -2.427845E-03 -2.334492E-03  4.975004E+01 -2.213184E-03  1.017040E-03  5.327443E-04
         1   5 -2.740193E-03 -2.296493E-03  4.977127E+01 -1.976308E-03 -4.402609E-03 -1.973986E-03
         1   6 -2.192074E-03 -2.909025E-03  4.979334E+01 -2.443318E-03 -8.635156E-03 -5.626624E-03
         1   7 -1.808469E-03 -2.849587E-03  4.978294E+01 -1.486411E-03 -3.864678E-03 -4.899133E-03
         1   8 -1.979689E-03 -3.143614E-03  4.980338E+01 -1.119599E-03 -7.342360E-03 -7.923154E-03
         1   9 -1.290443E-03 -4.088173E-03  4.982467E+01 -1.456674E-03 -9.632940E-03 -1.209308E-02
         1  10  3.539740E-03  2.791175E-03  4.976022E+01  2.480928E-03  7.262044E-03  2.294714E-03
         1  11  2.968379E-03  3.448468E-03  4.976058E+01  2.702937E-03  4.726529E-03  3.384957E-03
         1  12  3.257484E-03  3.455228E-03  4.976179E+01  2.221058E-03  3.378114E-03  3.329293E-03
         1  13  3.722332E-03  3.808276E-03  4.976066E+01  1.521484E-03  5.180903E-03  3.617129E-03
         1  14  3.292099E-03  4.133542E-03  4.976024E+01  1.873427E-03  4.587353E-03  4.190082E-03
         1  15  3.722332E-03  3.808276E-03  4.976066E+01  1.521484E-03  5.180903E-03  3.617129E-03
         1  16  3.257484E-03  3.455228E-03  4.976179E+01  2.221058E-03  3.378114E-03  3.329293E-03
         1  17  2.968379E-03  3.448468E-03  4.976058E+01  2.702937E-03  4.726529E-03  3.384957E-03
         1  18  3.539740E-03  2.791175E-03  4.976022E+01  2.480928E-03  7.262044E-03  2.294714E-03
         1  19 -1.290443E-03 -4.088173E-03  4.982467E+01 -1.456674E-03 -9.632940E-03 -1.209308E-02
         1  20 -1.979689E-03 -3.143614E-03  4.980338E+01 -1.119599E-03 -7.342360E-03 -7.923154E-03
         1  21 -1.808469E-03 -2.849587E-03  4.978294E+01 -1.486411E-03 -3.864678E-03 -4.899133E-03
         1  22 -2.192074E-03 -2.909025E-03  4.979334E+01 -2.443318E-03 -8.635156E-03 -5.626624E-03
         1  23 -2.740193E-03 -2.296493E-03  4.977127E+01 -1.976308E-03 -4.402609E-03 -1.973986E-03
         1  24 -2.427845E-03 -2.334492E-03  4.975004E+01 -2.213184E-03  1.017040E-03  5.327443E-04
         1  25 -3.741145E-03 -3.100027E-03  4.976269E+01 -1.770944E-03 -7.359017E-03 -7.704170E-04
         1  26 -4.148136E-03 -2.819521E-03  4.973983E+01 -1.173997E-03 -1.184504E-03  2.364931E-03
         1  27 -3.694660E-03 -3.189548E-03  4.971782E+01 -1.280939E-03  6.177111E-03  4.354372E-03

 displacements (vx,vy,vz) for set NALL and time  0.2520000E+01

         2  0.000000E+00  0.000000E+00  0.000000E+00
        10  8.603105E-05  0.000000E+00  0.000000E+00
        11  4.301762E-05 -2.413166E-08  0.000000E+00
        12  2.980441E-05  1.782347E-05  0.000000E+00
        13  5.959601E-05  3.569867E-05  0.000000E+00
        33  1.407276E-04  1.790800E-04  2.099436E-04
        34  2.815639E-04  3.581577E-04  4.200000E-04
        93  1.159199E-04  1.779123E-05  0.000000E+00
        95  1.458085E-04  3.562150E-05  0.000000E+00
        96  1.027153E-04  3.563102E-05  0.000000E+00
       103  2.268459E-04  1.790291E-04  2.097511E-04
       105  3.677764E-04  3.580805E-04  4.200000E-04
       106  3.246572E-04  3.581481E-04  4.200000E-04
       132  2.005265E-04  2.147500E-04  2.102489E-04
       133  3.114525E-04  3.759879E-04  4.200000E-04
       134  3.413414E-04  3.937792E-04  4.200000E-04
       219  2.866449E-04  2.146992E-04  2.100564E-04
       220  3.975680E-04  3.759557E-04  4.200000E-04
       222  4.273724E-04  3.937792E-04  4.200000E-04
       223  3.843548E-04  3.938033E-04  4.200000E-04

 forces (fx,fy,fz) for set NALL and time  0.2520000E+01

         2  5.111634E-15 -2.117359E-15  1.814319E+00
        10  3.245965E-15  2.027099E-15  1.815675E+00
        11 -7.862978E-15  6.407028E-15 -7.254424E+00
        12 -2.229838E-15 -5.893316E-17 -7.263985E+00
        13  6.352205E-16 -2.453089E-15  1.811384E+00
        33 -3.764818E-15  2.250038E-15  4.037142E-15
        34  7.083815E-15 -3.539122E-15 -1.814379E+00
        93  2.103843E-15 -8.040235E-15 -7.256065E+00
        95 -1.163112E-15  3.187453E-15  1.814379E+00
        96 -1.949280E-15  3.236689E-15 -7.265797E+00
       103 -1.078702E-14 -7.953561E-15 -6.503224E-15
       105 -1.692501E-16 -5.177006E-16 -1.811384E+00
       106 -7.535242E-15  1.022416E-14  7.265797E+00
       132  1.118311E-14  1.059997E-14  3.850273E-15
       133 -7.251314E-15 -3.330981E-15  7.256065E+00
       134  1.762533E-15  1.111849E-16 -1.815675E+00
       219  4.978324E-15 -5.738411E-15  4.615225E-15
       220  5.398166E-16 -1.908422E-14  7.263985E+00
       222  1.108172E-15  1.376261E-15 -1.814319E+00
       223  4.960157E-15  1.341286E-14  7.254424E+00

 stresses (elem, integ.pnt.,sxx,syy,szz,sxy,sxz,syz) for set EALL and time  0.2520000E+01

         1   1 -1.130061E-02 -9.747842E-03  8.699690E+01 -3.914393E-03  1.889053E-02  1.330668E-02
         1   2 -1.268994E-02 -8.616525E-03  8.706432E+01 -3.589394E-03 -3.638132E-03  7.226628E-03
         1   3 -1.144754E-02 -9.479304E-03  8.713433E+01 -5.417050E-03 -2.253332E-02 -2.362189E-03
         1   4 -7.430228E-03 -7.133731E-03  8.709552E+01 -6.767519E-03  3.108018E-03  1.628614E-03
         1   5 -8.387157E-03 -7.018502E-03  8.716055E+01 -6.044619E-03 -1.347993E-02 -6.035862E-03
         1   6 -6.712358E-03 -8.897364E-03  8.722816E+01 -7.474369E-03 -2.643441E-02 -1.720912E-02
         1   7 -5.537398E-03 -8.712295E-03  8.719623E+01 -4.546206E-03 -1.182053E-02 -1.497798E-02
         1   8 -6.061923E-03 -9.613147E-03  8.725886E+01 -3.425404E-03 -2.246777E-02 -2.422689E-02
         1   9 -3.954723E-03 -1.250809E-02  8.732407E+01 -4.457247E-03 -2.948152E-02 -3.698460E-02
         1  10  1.083458E-02  8.530393E-03  8.712674E+01  7.588449E-03  2.222969E-02  7.015074E-03
         1  11  9.086312E-03  1.054352E-02  8.712784E+01  8.266877E-03  1.447225E-02  1.035389E-02
         1  12  9.969767E-03  1.056255E-02  8.713153E+01  6.792649E-03  1.034828E-02  1.018393E-02
         1  13  1.139095E-02  1.164281E-02  8.712809E+01  4.653328E-03  1.586201E-02  1.106377E-02
         1  14  1.007509E-02  1.263985E-02  8.712680E+01  5.729656E-03  1.404527E-02  1.281815E-02
         1  15  1.139095E-02  1.164281E-02  8.712809E+01  4.653328E-03  1.586201E-02  1.106377E-02
         1  16  9.969767E-03  1.056255E-02  8.713153E+01  6.792649E-03  1.034828E-02  1.018393E-02
         1  17  9.086312E-03  1.054352E-02  8.712784E+01  8.266877E-03  1.447225E-02  1.035389E-02
         1  18  1.083458E-02  8.530393E-03  8.712674E+01  7.588449E-03  2.222969E-02  7.015074E-03
         1  19 -3.954723E-03 -1.250809E-02  8.732407E+01 -4.457247E-03 -2.948152E-02 -3.698460E-02
         1  20 -6.061923E-03 -9.613147E-03  8.725886E+01 -3.425404E-03 -2.246777E-02 -2.422689E-02
         1  21 -5.537398E-03 -8.712295E-03  8.719623E+01 -4.546206E-03 -1.182053E-02 -1.497798E-02
         1  22 -6.712358E-03 -8.897364E-03  8.722816E+01 -7.474369E-03 -2.643441E-02 -1.720912E-02
         1  23 -8.387157E-03 -7.018502E-03  8.716055E+01 -6.044619E-03 -1.347993E-02 -6.035862E-03
         1  24 -7.430228E-03 -7.133731E-03  8.709552E+01 -6.767519E-03  3.108018E-03  1.628614E-03
         1  25 -1.144754E-02 -9.479304E-03  8.713433E+01 -5.417050E-03 -2.253332E-02 -2.362189E-03
         1  26 -1.268994E-02 -8.616525E-03  8.706432E+01 -3.589394E-03 -3.638132E-03  7.226628E-03
         1  27 -1.130061E-02 -9.747842E-03  8.699690E+01 -3.914393E-03  1.889053E-02  1.330668E-02

 displacements (vx,vy,vz) for set NALL and time  0.4140000E+01

         2  0.000000E+00  0.000000E+00  0.000000E+00
        10  1.412682E-04  0.000000E+00  0.000000E+00
        11  7.063976E-05 -6.504505E-08  0.000000E+00
        12  4.883718E-05  2.930602E-05  0.000000E+00
        13  9.763987E-05  5.875149E-05  0.000000E+00
        33  2.309274E-04  2.937062E-04  3.448482E-04
        34  4.621480E-04  5.874058E-04  6.900000E-04
        93  1.903330E-04  2.921906E-05  0.000000E+00
        95  2.393969E-04  5.854336E-05  0.000000E+00
        96  1.685534E-04  5.856910E-05  0.000000E+00
       103  3.724310E-04  2.935689E-04  3.443292E-04
       105  6.039050E-04  5.871976E-04  6.900000E-04
       106  5.329914E-04  5.873800E-04  6.900000E-04
       132  3.291139E-04  3.523802E-04  3.456708E-04
       133  5.112118E-04  6.167301E-04  6.900000E-04
       134  5.602766E-04  6.459491E-04  6.900000E-04
       219  4.706174E-04  3.522429E-04  3.451518E-04
       220  6.527077E-04  6.166431E-04  6.900000E-04
       222  7.015448E-04  6.459491E-04  6.900000E-04
       223  6.309051E-04  6.460142E-04  6.900000E-04

 forces (fx,fy,fz) for set NALL and time  0.4140000E+01

         2  3.178000E-15 -5.237699E-15  2.982177E+00
        10  5.672722E-15 -2.364814E-15  2.985837E+00
        11 -5.731879E-15  7.509543E-15 -1.192102E+01
        12 -5.200809E-15  4.154500E-15 -1.194682E+01
        13  3.700761E-15  3.557918E-15  2.974257E+00
        33  4.242009E-15  2.695977E-15  1.420760E-14
        34 -1.767029E-15 -3.091138E-15 -2.982343E+00
        93 -5.092948E-15 -5.240532E-15 -1.192544E+01
        95  4.054753E-15  4.881661E-15  2.982343E+00
        96 -2.110535E-15 -5.166278E-15 -1.195169E+01
       103 -6.319198E-15  5.667677E-15  1.973499E-15
       105  7.158572E-15  7.379270E-15 -2.974257E+00
       106 -1.300016E-15  3.794044E-15  1.195169E+01
       132  3.832004E-15 -4.474502E-15  5.199400E-15
       133 -2.448942E-16  4.285201E-15  1.192544E+01
       134  4.368251E-16  3.551955E-15 -2.985837E+00
       219 -7.782295E-15 -4.753278E-15 -3.982627E-15
       220  1.446224E-16 -5.364453E-15  1.194682E+01
       222  1.012957E-15  5.077793E-15 -2.982177E+00
       223  2.119426E-15 -1.685251E-14  1.192102E+01

 stresses (elem, integ.pnt.,sxx,syy,szz,sxy,sxz,syz) for set EALL and time  0.4140000E+01

         1   1 -3.044239E-02 -2.622793E-02  1.429006E+02 -1.053065E-02  5.087654E-02  3.579902E-02
         1   2 -3.419443E-02 -2.318216E-02  1.430826E+02 -9.663595E-03 -9.861934E-03  1.944007E-02
         1   3 -3.085741E-02 -2.552580E-02  1.432715E+02 -1.459438E-02 -6.080201E-02 -6.386666E-03
         1   4 -2.003360E-02 -1.919063E-02  1.431666E+02 -1.822353E-02  8.361570E-03  4.383782E-03
         1   5 -2.261779E-02 -1.888425E-02  1.433421E+02 -1.628267E-02 -3.636961E-02 -1.625242E-02
         1   6 -1.811295E-02 -2.396725E-02  1.435246E+02 -2.013960E-02 -7.130231E-02 -4.635646E-02
         1   7 -1.494106E-02 -2.345546E-02  1.434382E+02 -1.224613E-02 -3.184250E-02 -4.032188E-02
         1   8 -1.635741E-02 -2.588842E-02  1.436073E+02 -9.231454E-03 -6.056632E-02 -6.523540E-02
         1   9 -1.068476E-02 -3.371073E-02  1.437833E+02 -1.201454E-02 -7.949162E-02 -9.961684E-02
         1  10  2.921849E-02  2.295241E-02  1.432509E+02  2.044307E-02  5.995559E-02  1.888313E-02
         1  11  2.450614E-02  2.838645E-02  1.432539E+02  2.226819E-02  3.904911E-02  2.789429E-02
         1  12  2.688278E-02  2.843107E-02  1.432638E+02  1.829547E-02  2.794106E-02  2.743763E-02
         1  13  3.070874E-02  3.134278E-02  1.432546E+02  1.253412E-02  4.279292E-02  2.980559E-02
         1  14  2.716425E-02  3.403748E-02  1.432511E+02  1.543303E-02  3.789370E-02  3.453949E-02
         1  15  3.070874E-02  3.134278E-02  1.432546E+02  1.253412E-02  4.279292E-02  2.980559E-02
         1  16  2.688278E-02  2.843107E-02  1.432638E+02  1.829547E-02  2.794106E-02  2.743763E-02
         1  17  2.450614E-02  2.838645E-02  1.432539E+02  2.226819E-02  3.904911E-02  2.789429E-02
         1  18  2.921849E-02  2.295241E-02  1.432509E+02  2.044307E-02  5.995559E-02  1.888313E-02
         1  19 -1.068476E-02 -3.371073E-02  1.437833E+02 -1.201454E-02 -7.949162E-02 -9.961684E-02
         1  20 -1.635741E-02 -2.588842E-02  1.436073E+02 -9.231454E-03 -6.056632E-02 -6.523540E-02
         1  21 -1.494106E-02 -2.345546E-02  1.434382E+02 -1.224613E-02 -3.184250E-02 -4.032188E-02
         1  22 -1.811295E-02 -2.396725E-02  1.435246E+02 -2.013960E-02 -7.130231E-02 -4.635646E-02
         1  23 -2.261779E-02 -1.888425E-02  1.433421E+02 -1.628267E-02 -3.636961E-02 -1.625242E-02
         1  24 -2.003360E-02 -1.919063E-02  1.431666E+02 -1.822353E-02  8.361570E-03  4.383782E-03
         1  25 -3.085741E-02 -2.552580E-02  1.432715E+02 -1.459438E-02 -6.080201E-02 -6.386666E-03
         1  26 -3.419443E-02 -2.318216E-02  1.430826E+02 -9.663595E-03 -9.861934E-03  1.944007E-02
         1  27 -3.044239E-02 -2.622793E-02  1.429006E+02 -1.053065E-02  5.087654E-02  3.579902E-02

 displacements (vx,vy,vz) for set NALL and time  0.6570000E+01

         2  0.000000E+00  0.000000E+00  0.000000E+00
        10  2.238247E-04  0.000000E+00  0.000000E+00
        11  1.119323E-04 -1.673520E-07  0.000000E+00
        12  7.638172E-05  4.585625E-05  0.000000E+00
        13  1.526926E-04  9.202332E-05  0.000000E+00
        33  3.638085E-04  4.627938E-04  5.471075E-04
        34  7.283566E-04  9.255569E-04  1.095000E-03
        93  3.008236E-04  4.570068E-05  0.000000E+00
        95  3.778284E-04  9.162496E-05  0.000000E+00
        96  2.653571E-04  9.162201E-05  0.000000E+00
       103  5.882777E-04  4.624540E-04  5.457190E-04
       105  9.534924E-04  9.251585E-04  1.095000E-03
       106  8.408279E-04  9.255598E-04  1.095000E-03
       132  5.179073E-04  5.547278E-04  5.492810E-04
       133  8.053614E-04  9.714811E-04  1.095000E-03
       134  8.823603E-04  1.017182E-03  1.095000E-03
       219  7.423766E-04  5.543880E-04  5.478925E-04
       220  1.029803E-03  9.713256E-04  1.095000E-03
       222  1.106185E-03  1.017182E-03  1.095000E-03
       223  9.942527E-04  1.017349E-03  1.095000E-03

 forces (fx,fy,fz) for set NALL and time  0.6570000E+01

         2  6.721508E-09  6.618275E-09  4.722326E+00
        10  1.980250E-08  2.550748E-08  4.731833E+00
        11 -3.816462E-08 -4.595199E-08 -1.886995E+01
        12  3.406777E-09  1.488832E-08 -1.893497E+01
        13 -3.616827E-09 -5.750543E-09  4.703227E+00
        33 -9.984986E-09 -9.688535E-09  8.457157E-09
        34 -1.771717E-09 -1.902960E-09 -4.722814E+00
        93 -3.125854E-08 -3.975261E-08 -1.888132E+01
        95  1.777248E-09  1.911645E-09  4.722814E+00
        96  1.626068E-08  2.839010E-08 -1.894690E+01
       103 -4.540173E-08 -6.310725E-08 -1.532198E-08
       105  3.624778E-09  5.763770E-09 -4.703227E+00
       106 -1.623297E-08 -2.834482E-08  1.894690E+01
       132  4.540963E-08  6.311250E-08  1.530113E-08
       133  3.121655E-08  3.969711E-08  1.888132E+01
       134 -1.981763E-08 -2.552968E-08 -4.731833E+00
       219  9.987436E-09  9.688629E-09 -8.469177E-09
       220 -3.454152E-09 -1.495838E-08  1.893497E+01
       222 -6.707088E-09 -6.599040E-09 -4.722326E+00
       223  3.820316E-08  4.600800E-08  1.886995E+01

 stresses (elem, integ.pnt.,sxx,syy,szz,sxy,sxz,syz) for set EALL and time  0.6570000E+01

         1   1 -7.539739E-02 -6.214738E-02  2.260510E+02 -2.374297E-02  1.226402E-01  8.169189E-02
         1   2 -8.588648E-02 -5.458914E-02  2.265088E+02 -2.146179E-02 -3.114276E-02  4.418397E-02
         1   3 -7.618362E-02 -5.959269E-02  2.269817E+02 -3.389336E-02 -1.569503E-01 -1.727810E-02
         1   4 -4.901921E-02 -4.769601E-02  2.267184E+02 -4.232134E-02  2.011508E-02  3.920198E-03
         1   5 -5.639055E-02 -4.635123E-02  2.271578E+02 -3.738037E-02 -9.147009E-02 -4.247638E-02
         1   6 -4.358148E-02 -5.759052E-02  2.276122E+02 -4.717639E-02 -1.750911E-01 -1.128307E-01
         1   7 -3.496360E-02 -5.557963E-02  2.273953E+02 -2.831675E-02 -7.833929E-02 -1.023457E-01
         1   8 -3.923986E-02 -6.048944E-02  2.278163E+02 -2.077517E-02 -1.477508E-01 -1.576325E-01
         1   9 -2.334529E-02 -7.800098E-02  2.282524E+02 -2.799372E-02 -1.892080E-01 -2.368788E-01
         1  10  7.225299E-02  5.518940E-02  2.269444E+02  4.686686E-02  1.521971E-01  5.041168E-02
         1  11  5.939389E-02  6.853737E-02  2.269542E+02  5.186318E-02  9.633329E-02  7.160224E-02
         1  12  6.652547E-02  6.884162E-02  2.269796E+02  4.196934E-02  6.826185E-02  6.865785E-02
         1  13  7.573575E-02  7.363384E-02  2.269566E+02  2.826903E-02  1.083610E-01  7.395839E-02
         1  14  6.574093E-02  8.015688E-02  2.269488E+02  3.571456E-02  9.446524E-02  8.602629E-02
         1  15  7.573575E-02  7.363384E-02  2.269566E+02  2.826903E-02  1.083610E-01  7.395839E-02
         1  16  6.652547E-02  6.884162E-02  2.269796E+02  4.196934E-02  6.826185E-02  6.865785E-02
         1  17  5.939389E-02  6.853737E-02  2.269542E+02  5.186318E-02  9.633329E-02  7.160224E-02
         1  18  7.225299E-02  5.518940E-02  2.269444E+02  4.686686E-02  1.521971E-01  5.041168E-02
         1  19 -2.334529E-02 -7.800098E-02  2.282524E+02 -2.799372E-02 -1.892080E-01 -2.368788E-01
         1  20 -3.923986E-02 -6.048944E-02  2.278163E+02 -2.077517E-02 -1.477508E-01 -1.576325E-01
         1  21 -3.496360E-02 -5.557963E-02  2.273953E+02 -2.831675E-02 -7.833929E-02 -1.023457E-01
         1  22 -4.358148E-02 -5.759052E-02  2.276122E+02 -4.717639E-02 -1.750911E-01 -1.128307E-01
         1  23 -5.639055E-02 -4.635123E-02  2.271578E+02 -3.738037E-02 -9.147009E-02 -4.247638E-02
         1  24 -4.901921E-02 -4.769601E-02  2.267184E+02 -4.232134E-02  2.011508E-02  3.920198E-03
         1  25 -7.618362E-02 -5.959269E-02  2.269817E+02 -3.389336E-02 -1.569503E-01 -1.727810E-02
         1  26 -8.588648E-02 -5.458914E-02  2.265088E+02 -2.146179E-02 -3.114276E-02  4.418397E-02
         1  27 -7.539739E-02 -6.214738E-02  2.260510E+02 -2.374297E-02  1.226402E-01  8.169189E-02

 displacements (vx,vy,vz) for set NALL and time  0.1021500E+02

         2  0.000000E+00  0.000000E+00  0.000000E+00
        10  3.426572E-04  0.000000E+00  0.000000E+00
        11  1.715034E-04 -5.546501E-07  0.000000E+00
        12  1.009904E-04  4.822723E-05  0.000000E+00
        13  2.024882E-04  9.632000E-05  0.000000E+00
        33  5.019786E-04  6.415763E-04  8.500760E-04
        34  1.005602E-03  1.283026E-03  1.702500E-03
        93  4.459677E-04  4.914988E-05  0.000000E+00
        95  5.497546E-04  9.788454E-05  0.000000E+00
        96  3.765058E-04  9.644932E-05  0.000000E+00
       103  8.472096E-04  6.414724E-04  8.454836E-04
       105  1.352868E-03  1.284590E-03  1.702500E-03
       106  1.178850E-03  1.284461E-03  1.702500E-03
       132  7.081466E-04  7.394380E-04  8.570164E-04
       133  1.109389E-03  1.331760E-03  1.702500E-03
       134  1.212699E-03  1.380910E-03  1.702500E-03
       219  1.053378E-03  7.393340E-04  8.524240E-04
       220  1.454366E-03  1.332683E-03  1.702500E-03
       222  1.555356E-03  1.380910E-03  1.702500E-03
       223  1.383853E-03  1.381465E-03  1.702500E-03

 forces (fx,fy,fz) for set NALL and time  0.1021500E+02

         2 -1.005137E-08 -3.575974E-08  6.877173E+00
        10 -3.819538E-08 -6.510875E-08  6.903599E+00
        11  3.800841E-08  1.342496E-07 -2.746570E+01
        12  5.300688E-10  3.006494E-08 -2.760503E+01
        13 -1.043445E-09  5.019552E-09  6.848683E+00
        33 -8.517526E-09  8.356250E-08  6.097992E-09
        34  1.104635E-08 -5.973664E-09 -6.880070E+00
        93  6.748025E-08  6.959758E-08 -2.749615E+01
        95 -1.185326E-08  5.412656E-09  6.880070E+00
        96 -1.342819E-09 -7.483716E-08 -2.762605E+01
       103  6.169292E-08  1.303997E-07  4.913048E-08
       105  6.643080E-11 -6.168271E-09 -6.848683E+00
       106 -4.782951E-13  7.331330E-08  2.762605E+01
       132 -6.235152E-08 -1.309005E-07 -4.787212E-08
       133 -6.487220E-08 -6.691711E-08  2.749615E+01
       134  3.847005E-08  6.588793E-08 -6.903599E+00
       219  8.488008E-09 -8.298590E-08 -5.479446E-09
       220  2.346080E-09 -2.735376E-08  2.760503E+01
       222  9.035144E-09  3.456283E-08 -6.877173E+00
       223 -3.893571E-08 -1.360657E-07  2.746570E+01

 stresses (elem, integ.pnt.,sxx,syy,szz,sxy,sxz,syz) for set EALL and time  0.1021500E+02

         1   1 -1.503998E-01 -8.032005E-02  3.287918E+02  7.626568E-03  1.358377E-01  4.049258E-03
         1   2 -1.877521E-01 -4.102364E-02  3.296902E+02  8.236486E-03 -2.051297E-01  1.043844E-03
         1   3 -1.422688E-01 -4.236741E-02  3.306103E+02 -2.532694E-02 -4.231974E-01 -8.100599E-02
         1   4 -7.235320E-02 -9.897978E-02  3.301207E+02 -3.202167E-02  2.592767E-02 -1.281167E-01
         1   5 -1.013560E-01 -6.659440E-02  3.309733E+02 -2.274583E-02 -1.962324E-01 -1.243904E-01
         1   6 -4.820124E-02 -7.500827E-02  3.318483E+02 -4.776968E-02 -2.964172E-01 -1.997382E-01
         1   7 -3.370324E-02 -6.092204E-02  3.314424E+02 -2.729962E-02 -1.720927E-01 -2.333512E-01
         1   8 -5.485057E-02 -3.612333E-02  3.322503E+02 -9.716881E-03 -2.760484E-01 -2.231208E-01
         1   9  5.550106E-03 -5.222359E-02  3.330813E+02 -2.653303E-02 -2.588766E-01 -2.919735E-01
         1  10  1.266051E-01  6.901633E-02  3.307634E+02  3.543403E-02  3.568720E-01  1.662622E-01
         1  11  8.010452E-02  1.013208E-01  3.307902E+02  4.444624E-02  1.799591E-01  2.013425E-01
         1  12  1.144315E-01  9.032591E-02  3.308432E+02  1.890942E-02  1.237691E-01  1.562062E-01
         1  13  1.417852E-01  5.412970E-02  3.308026E+02  5.137828E-03  2.858537E-01  1.491049E-01
         1  14  1.013869E-01  7.578833E-02  3.307894E+02  2.241706E-02  2.255105E-01  1.892161E-01
         1  15  1.417852E-01  5.412971E-02  3.308026E+02  5.137829E-03  2.858537E-01  1.491049E-01
         1  16  1.144315E-01  9.032589E-02  3.308432E+02  1.890940E-02  1.237691E-01  1.562061E-01
         1  17  8.010450E-02  1.013208E-01  3.307902E+02  4.444622E-02  1.799591E-01  2.013425E-01
         1  18  1.266051E-01  6.901631E-02  3.307634E+02  3.543401E-02  3.568720E-01  1.662622E-01
         1  19  5.550114E-03 -5.222358E-02  3.330813E+02 -2.653302E-02 -2.588766E-01 -2.919735E-01
         1  20 -5.485056E-02 -3.612331E-02  3.322503E+02 -9.716864E-03 -2.760484E-01 -2.231208E-01
         1  21 -3.370324E-02 -6.092202E-02  3.314424E+02 -2.729960E-02 -1.720927E-01 -2.333512E-01
         1  22 -4.820124E-02 -7.500829E-02  3.318483E+02 -4.776969E-02 -2.964172E-01 -1.997382E-01
         1  23 -1.013560E-01 -6.659440E-02  3.309733E+02 -2.274583E-02 -1.962324E-01 -1.243904E-01
         1  24 -7.235319E-02 -9.897975E-02  3.301207E+02 -3.202165E-02  2.592767E-02 -1.281167E-01
         1  25 -1.422688E-01 -4.236745E-02  3.306103E+02 -2.532696E-02 -4.231974E-01 -8.100601E-02
         1  26 -1.877521E-01 -4.102365E-02  3.296902E+02  8.236490E-03 -2.051297E-01  1.043843E-03