    1C
    1UUSER                                                              
    1UDATE              04.march.2015                                   
    1UTIME              20:06:55                                        
    1UHOST                                                              
    1UPGM               CalculiX                                        
    1UDIR                                                               
    1UDBN                                                               
    1UMAT    1EL                                                        
    2C                            41                                     1
 -1         1 0.00000E+00 0.00000E+00 0.00000E+00
 -1         2 1.00000E-01 0.00000E+00 0.00000E+00
 -1         3 5.00000E-02 0.00000E+00 0.00000E+00
 -1         4 2.00000E-01 0.00000E+00 0.00000E+00
 -1         5 1.50000E-01 0.00000E+00 0.00000E+00
 -1         6 3.00000E-01 0.00000E+00 0.00000E+00
 -1         7 2.50000E-01 0.00000E+00 0.00000E+00
 -1         8 4.00000E-01 0.00000E+00 0.00000E+00
 -1         9 3.50000E-01 0.00000E+00 0.00000E+00
 -1        10 5.00000E-01 0.00000E+00 0.00000E+00
 -1        11 4.50000E-01 0.00000E+00 0.00000E+00
 -1        12 6.00000E-01 0.00000E+00 0.00000E+00
 -1        13 5.50000E-01 0.00000E+00 0.00000E+00
 -1        14 7.00000E-01 0.00000E+00 0.00000E+00
 -1        15 6.50000E-01 0.00000E+00 0.00000E+00
 -1        16 8.00000E-01 0.00000E+00 0.00000E+00
 -1        17 7.50000E-01 0.00000E+00 0.00000E+00
 -1        18 9.00000E-01 0.00000E+00 0.00000E+00
 -1        19 8.50000E-01 0.00000E+00 0.00000E+00
 -1        20 1.00000E+00 0.00000E+00 0.00000E+00
 -1        21 9.50000E-01 0.00000E+00 0.00000E+00
 -1        22 1.10000E+00 0.00000E+00 0.00000E+00
 -1        23 1.05000E+00 0.00000E+00 0.00000E+00
 -1        24 1.20000E+00 0.00000E+00 0.00000E+00
 -1        25 1.15000E+00 0.00000E+00 0.00000E+00
 -1        26 1.30000E+00 0.00000E+00 0.00000E+00
 -1        27 1.25000E+00 0.00000E+00 0.00000E+00
 -1        28 1.40000E+00 0.00000E+00 0.00000E+00
 -1        29 1.35000E+00 0.00000E+00 0.00000E+00
 -1        30 1.50000E+00 0.00000E+00 0.00000E+00
 -1        31 1.45000E+00 0.00000E+00 0.00000E+00
 -1        32 1.60000E+00 0.00000E+00 0.00000E+00
 -1        33 1.55000E+00 0.00000E+00 0.00000E+00
 -1        34 1.70000E+00 0.00000E+00 0.00000E+00
 -1        35 1.65000E+00 0.00000E+00 0.00000E+00
 -1        36 1.80000E+00 0.00000E+00 0.00000E+00
 -1        37 1.75000E+00 0.00000E+00 0.00000E+00
 -1        38 1.90000E+00 0.00000E+00 0.00000E+00
 -1        39 1.85000E+00 0.00000E+00 0.00000E+00
 -1        40 2.00000E+00 0.00000E+00 0.00000E+00
 -1        41 1.95000E+00 0.00000E+00 0.00000E+00
 -3
    3C                            20                                     1
 -1         1   12    0    1
 -2         1         2         3
 -1         2   12    0    1
 -2         2         4         5
 -1         3   12    0    1
 -2         4         6         7
 -1         4   12    0    1
 -2         6         8         9
 -1         5   12    0    1
 -2         8        10        11
 -1         6   12    0    1
 -2        10        12        13
 -1         7   12    0    1
 -2        12        14        15
 -1         8   12    0    1
 -2        14        16        17
 -1         9   12    0    1
 -2        16        18        19
 -1        10   12    0    1
 -2        18        20        21
 -1        11   12    0    1
 -2        20        22        23
 -1        12   12    0    1
 -2        22        24        25
 -1        13   12    0    1
 -2        24        26        27
 -1        14   12    0    1
 -2        26        28        29
 -1        15   12    0    1
 -2        28        30        31
 -1        16   12    0    1
 -2        30        32        33
 -1        17   12    0    1
 -2        32        34        35
 -1        18   12    0    1
 -2        34        36        37
 -1        19   12    0    1
 -2        36        38        39
 -1        20   12    0    1
 -2        38        40        41
 -3
    1PSTEP                         1           1           1          
  100CL  101 1.000000000          41                     0    1           1
 -4  DISP        4    1
 -5  D1          1    2    1    0
 -5  D2          1    2    2    0
 -5  D3          1    2    3    0
 -5  ALL         1    2    0    0    1ALL
 -1         1 6.77626E-21 0.00000E+00-2.64698E-23
 -1         2-1.54910E-06 2.87376E-16 5.57716E-04
 -1         3-7.78380E-07 1.44397E-16 2.79577E-04
 -1         4-3.03804E-06 5.63745E-16 1.10386E-03
 -1         5-2.30495E-06 4.27608E-16 8.32877E-04
 -1         6-4.40819E-06 8.18965E-16 1.62779E-03
 -1         7-3.74135E-06 6.94527E-16 1.36931E-03
 -1         8-5.60959E-06 1.04549E-15 2.11821E-03
 -1         9-5.03277E-06 9.36237E-16 1.87788E-03
 -1        10-6.60346E-06 1.23762E-15 2.56399E-03
 -1        11-6.13443E-06 1.14607E-15 2.34738E-03
 -1        12-7.36590E-06 1.39274E-15 2.95397E-03
 -1        13-7.01450E-06 1.31994E-15 2.76666E-03
 -1        14-7.89175E-06 1.50980E-15 3.27699E-03
 -1        15-7.65800E-06 1.45593E-15 3.12455E-03
 -1        16-8.19825E-06 1.58995E-15 3.52190E-03
 -1        17-8.07049E-06 1.55447E-15 3.40991E-03
 -1        18-8.32879E-06 1.63419E-15 3.67743E-03
 -1        19-8.28182E-06 1.61656E-15 3.61153E-03
 -1        20-8.35674E-06 1.64218E-15 3.73292E-03
 -1        21-8.34987E-06 1.64265E-15 3.71841E-03
 -1        22-8.38469E-06 1.61419E-15 3.67743E-03
 -1        23-8.36361E-06 1.63266E-15 3.71841E-03
 -1        24-8.51524E-06 1.55075E-15 3.52190E-03
 -1        25-8.43167E-06 1.58699E-15 3.61153E-03
 -1        26-8.82173E-06 1.45156E-15 3.27699E-03
 -1        27-8.64300E-06 1.50557E-15 3.40991E-03
 -1        28-9.34758E-06 1.31791E-15 2.95397E-03
 -1        29-9.05548E-06 1.38883E-15 3.12455E-03
 -1        30-1.01100E-05 1.15286E-15 2.56399E-03
 -1        31-9.69898E-06 1.23911E-15 2.76666E-03
 -1        32-1.11039E-05 9.59768E-16 2.11821E-03
 -1        33-1.05791E-05 1.05946E-15 2.34738E-03
 -1        34-1.23053E-05 7.43072E-16 1.62779E-03
 -1        35-1.16807E-05 8.54299E-16 1.87788E-03
 -1        36-1.36754E-05 5.06439E-16 1.10386E-03
 -1        37-1.29721E-05 6.26736E-16 1.36931E-03
 -1        38-1.51644E-05 2.57200E-16 5.57716E-04
 -1        39-1.44085E-05 3.83182E-16 8.32877E-04
 -1        40-1.67135E-05 0.00000E+00-2.64698E-23
 -1        41-1.59351E-05 1.29068E-16 2.79577E-04
 -3
    1PSTEP                         2           1           1          
  100CL  101 1.000000000          41                     0    1           1
 -4  STRESS      6    1
 -5  SXX         1    4    1    1
 -5  SYY         1    4    2    2
 -5  SZZ         1    4    3    3
 -5  SXY         1    4    1    2
 -5  SYZ         1    4    2    3
 -5  SZX         1    4    3    1
 -1         1 3.35630E-15 7.59772E-03 2.10669E-05-3.58193E-17 2.32142E-05-2.23773E-17
 -1         2 3.00107E-15 7.69542E-03 2.58494E-05-3.91431E-17 4.99619E-04-1.97914E-16
 -1         3 3.17869E-15 7.64657E-03 2.34581E-05-3.74812E-17 2.61417E-04-1.10146E-16
 -1         4 2.33822E-15 7.77130E-03 3.15927E-05-4.24008E-17 9.99736E-04-3.72694E-16
 -1         5 2.66965E-15 7.73336E-03 2.87211E-05-4.07719E-17 7.49677E-04-2.85304E-16
 -1         6 1.77623E-15 7.75528E-03 3.46372E-05-3.28327E-17 1.50000E-03-5.69762E-16
 -1         7 2.05723E-15 7.76329E-03 3.31150E-05-3.76167E-17 1.24987E-03-4.71228E-16
 -1         8 9.71745E-16 7.75975E-03 3.93623E-05-1.03440E-17 1.99998E-03-6.28187E-16
 -1         9 1.37399E-15 7.75751E-03 3.69997E-05-2.15883E-17 1.74999E-03-5.98974E-16
 -1        10 2.02175E-16 7.75844E-03 4.53512E-05-4.06423E-17 2.49998E-03-6.35207E-16
 -1        11 5.86960E-16 7.75910E-03 4.23567E-05-2.54932E-17 2.24998E-03-6.31697E-16
 -1        12-1.36608E-16 7.75976E-03 5.27477E-05-2.08065E-17 2.99998E-03-6.37538E-16
 -1        13 3.27836E-17 7.75910E-03 4.90494E-05-3.07244E-17 2.74998E-03-6.36372E-16
 -1        14 5.86223E-17 7.75532E-03 6.14799E-05-4.05085E-17 3.49999E-03-7.40131E-16
 -1        15-3.89927E-17 7.75754E-03 5.71138E-05-3.06575E-17 3.24998E-03-6.88834E-16
 -1        16-2.02270E-16 7.77087E-03 7.18071E-05-2.80622E-17 4.00022E-03-6.63965E-16
 -1        17-7.18237E-17 7.76310E-03 6.66435E-05-3.42854E-17 3.75011E-03-7.02048E-16
 -1        18-2.39801E-16 7.68924E-03 8.36896E-05 2.76133E-19 4.50119E-03-5.86608E-16
 -1        19-2.21035E-16 7.73006E-03 7.77484E-05-1.38930E-17 4.25071E-03-6.25286E-16
 -1        20-5.46215E-16-9.19766E-16 8.50633E-05-3.44582E-18 4.97871E-03-6.21139E-16
 -1        21-3.93008E-16 3.84462E-03 8.43764E-05-1.58485E-18 4.73995E-03-6.03874E-16
 -1        22-7.17614E-16-7.68924E-03 8.36896E-05-6.24602E-18 4.50119E-03-7.08092E-16
 -1        23-6.31915E-16-3.84462E-03 8.43764E-05-4.84592E-18 4.73995E-03-6.64616E-16
 -1        24-3.25059E-16-7.77087E-03 7.18071E-05 1.88922E-17 4.00022E-03-6.59141E-16
 -1        25-5.21337E-16-7.73006E-03 7.77484E-05 6.32310E-18 4.25071E-03-6.83617E-16
 -1        26-8.12853E-16-7.75532E-03 6.14799E-05 3.23736E-18 3.49999E-03-6.89119E-16
 -1        27-5.68956E-16-7.76310E-03 6.66435E-05 1.10648E-17 3.75011E-03-6.74130E-16
 -1        28-1.23832E-15-7.75976E-03 5.27477E-05-6.77626E-18 2.99998E-03-6.37972E-16
 -1        29-1.02558E-15-7.75754E-03 5.71138E-05-1.76945E-18 3.24998E-03-6.63545E-16
 -1        30-2.01253E-15-7.75844E-03 4.53512E-05 3.78810E-17 2.49998E-03-4.09205E-16
 -1        31-1.62542E-15-7.75910E-03 4.90494E-05 1.55524E-17 2.74998E-03-5.23588E-16
 -1        32-1.95903E-15-7.75975E-03 3.93623E-05 4.04560E-17 1.99998E-03-4.25766E-16
 -1        33-1.98578E-15-7.75910E-03 4.23567E-05 3.91685E-17 2.24998E-03-4.17486E-16
 -1        34-1.96488E-15-7.75528E-03 3.46372E-05 6.21299E-17 1.50000E-03-3.84390E-16
 -1        35-1.96195E-15-7.75751E-03 3.69997E-05 5.12929E-17 1.74999E-03-4.05078E-16
 -1        36-2.33226E-15-7.77130E-03 3.15927E-05 8.19233E-17 9.99736E-04-3.32498E-16
 -1        37-2.14857E-15-7.76329E-03 3.31150E-05 7.20266E-17 1.24987E-03-3.58444E-16
 -1        38-2.56844E-15-7.69542E-03 2.58494E-05 1.14365E-16 4.99619E-04-1.71670E-16
 -1        39-2.45035E-15-7.73336E-03 2.87211E-05 9.81440E-17 7.49677E-04-2.52084E-16
 -1        40-2.10057E-15-7.59772E-03 2.10669E-05 9.12288E-17 2.32142E-05 3.65071E-18
 -1        41-2.33451E-15-7.64657E-03 2.34581E-05 1.02797E-16 2.61417E-04-8.40096E-17
 -3
 9999
