
 displacements (vx,vy,vz) for set NALL and time  0.1000000E+01

         1 -5.558373E-26  2.710505E-20  8.131516E-20
         2  3.781324E-02  7.835455E-14  4.015218E-14
         3  1.890697E-02  2.089155E-14  1.000542E-14
         4  7.528785E-02  3.016618E-13  1.638754E-13
         5  5.655062E-02  1.723096E-13  9.262862E-14
         6  1.128620E-01  6.598060E-13  3.587160E-13
         7  9.407556E-02  4.645310E-13  2.527068E-13
         8  1.504093E-01  1.144010E-12  6.193675E-13
         9  1.316355E-01  8.866420E-13  4.813235E-13
        10  1.879638E-01  1.745713E-12  9.372632E-13
        11  1.691866E-01  1.430738E-12  7.716664E-13
        12  2.255163E-01  2.455970E-12  1.304487E-12
        13  2.067400E-01  2.087742E-12  1.115285E-12
        14  2.630694E-01  3.264571E-12  1.713132E-12
        15  2.442929E-01  2.848577E-12  1.504125E-12
        16  3.006223E-01  4.159599E-12  2.156232E-12
        17  2.818459E-01  3.702201E-12  1.930795E-12
        18  3.381753E-01  5.128641E-12  2.628851E-12
        19  3.193988E-01  4.635548E-12  2.389076E-12
        20  3.757282E-01  6.161709E-12  3.126992E-12
        21  3.569518E-01  5.637795E-12  2.874803E-12
        22  4.132812E-01  7.246042E-12  3.646172E-12
        23  3.945047E-01  6.698136E-12  3.384058E-12
        24  4.508342E-01  8.370171E-12  4.182974E-12
        25  4.320577E-01  7.803915E-12  3.912634E-12
        26  4.883871E-01  9.521170E-12  4.733866E-12
        27  4.696106E-01  8.942950E-12  4.456936E-12
        28  5.259401E-01  1.068854E-11  5.295534E-12
        29  5.071636E-01  1.010331E-11  5.013624E-12
        30  5.634927E-01  1.186516E-11  5.865787E-12
        31  5.447164E-01  1.127609E-11  5.579537E-12
        32  6.010472E-01  1.305027E-11  6.445894E-12
        33  5.822699E-01  1.245670E-11  6.154564E-12
        34  6.385944E-01  1.424523E-11  7.036627E-12
        35  6.198209E-01  1.364685E-11  6.739828E-12
        36  6.761686E-01  1.544710E-11  7.640288E-12
        37  6.573809E-01  1.484564E-11  7.336651E-12
        38  7.136432E-01  1.665065E-11  8.256430E-12
        39  6.949058E-01  1.605081E-11  7.948047E-12
        40  7.514565E-01  1.794740E-11  8.928650E-12
        41  7.325495E-01  1.725185E-11  8.567270E-12

 stresses (elem, integ.pnt.,sxx,syy,szz,sxy,sxz,syz) for set EALL and time  0.1000000E+01

         1   1  1.847762E+05 -6.504459E+01 -6.504459E+01  1.247767E+04 -1.247767E+04  8.351235E+01
         1   2  1.780922E+05  3.586307E+02  3.586307E+02  5.354317E+03 -5.354317E+03  1.160220E+02
         1   3  1.768034E+05  2.105124E+02  2.105124E+02 -1.785634E+03  1.785634E+03  3.777148E+01
         1   4  1.764642E+05 -3.515351E+02 -6.811697E+02  5.859233E+03  2.768265E-07  2.500089E-08
         1   5  1.756605E+05  3.413342E+02  2.462769E+02  2.529693E+03  2.095613E-07 -1.667564E-08
         1   6  1.755234E+05  1.075096E+02  8.879699E+01 -8.047923E+02  3.151045E-07 -1.306796E-10
         1   7  1.847762E+05 -6.504459E+01 -6.504459E+01  1.247767E+04  1.247767E+04 -8.351235E+01
         1   8  1.780922E+05  3.586307E+02  3.586307E+02  5.354317E+03  5.354317E+03 -1.160220E+02
         1   9  1.768034E+05  2.105124E+02  2.105124E+02 -1.785634E+03 -1.785634E+03 -3.777148E+01
         1  10  1.764642E+05 -6.811697E+02 -3.515351E+02  1.696209E-07 -5.859233E+03 -1.028913E-08
         1  11  1.756605E+05  2.462769E+02  3.413342E+02  2.641405E-07 -2.529693E+03  1.975565E-09
         1  12  1.755234E+05  8.879699E+01  1.075096E+02  3.682470E-07  8.047923E+02  1.561946E-09
         1  13  1.744370E+05 -5.632486E+02 -5.632486E+02  1.813393E-08  2.262818E-08 -2.861925E-09
         1  14  1.743713E+05  1.971122E+02  1.971122E+02  5.935337E-08  4.071646E-08  3.505027E-09
         1  15  1.743795E+05 -4.365715E+01 -4.365715E+01  1.051712E-07  5.873373E-08 -2.076512E-10
         1  16  1.764642E+05 -6.811697E+02 -3.515351E+02 -1.273182E-07  5.859233E+03 -2.122572E-09
         1  17  1.756605E+05  2.462769E+02  3.413342E+02 -1.431433E-07  2.529693E+03  4.488770E-09
         1  18  1.755234E+05  8.879699E+01  1.075096E+02 -1.563478E-07 -8.047923E+02 -3.111493E-10
         1  19  1.847762E+05 -6.504459E+01 -6.504459E+01 -1.247767E+04 -1.247767E+04 -8.351235E+01
         1  20  1.780922E+05  3.586307E+02  3.586307E+02 -5.354317E+03 -5.354317E+03 -1.160220E+02
         1  21  1.768034E+05  2.105124E+02  2.105124E+02  1.785634E+03  1.785634E+03 -3.777148E+01
         1  22  1.764642E+05 -3.515351E+02 -6.811697E+02 -5.859233E+03 -2.533994E-07 -2.628547E-08
         1  23  1.756605E+05  3.413342E+02  2.462769E+02 -2.529693E+03 -1.416990E-07  2.257365E-08
         1  24  1.755234E+05  1.075096E+02  8.879699E+01  8.047923E+02 -2.043084E-07 -1.342411E-09
         1  25  1.847762E+05 -6.504459E+01 -6.504459E+01 -1.247767E+04  1.247767E+04  8.351235E+01
         1  26  1.780922E+05  3.586307E+02  3.586307E+02 -5.354317E+03  5.354317E+03  1.160220E+02
         1  27  1.768034E+05  2.105124E+02  2.105124E+02  1.785634E+03 -1.785634E+03  3.777148E+01
         2   1  1.762332E+05 -7.896160E+01 -7.896160E+01 -3.373873E+03  3.373873E+03 -1.759870E+00
         2   2  1.757630E+05 -7.146471E+01 -7.146471E+01 -1.442125E+03  1.442125E+03  2.405003E+00
         2   3  1.756669E+05 -4.994104E+01 -4.994104E+01  4.896179E+02 -4.896179E+02 -1.081706E+01
         2   4  1.760297E+05 -5.696981E+01 -7.867142E+01 -1.597983E+03  3.742000E-07  9.598792E-09
         2   5  1.759721E+05 -2.811286E+01 -3.299708E+01 -6.825552E+02  3.634218E-07 -1.746522E-10
         2   6  1.759592E+05 -2.565772E+01 -2.248014E+01  2.328355E+02  3.416975E-07 -1.554471E-10
         2   7  1.762332E+05 -7.896160E+01 -7.896160E+01 -3.373873E+03 -3.373873E+03  1.759870E+00
         2   8  1.757630E+05 -7.146471E+01 -7.146471E+01 -1.442125E+03 -1.442125E+03 -2.405003E+00
         2   9  1.756669E+05 -4.994104E+01 -4.994104E+01  4.896179E+02  4.896179E+02  1.081706E+01
         2  10  1.760297E+05 -7.867142E+01 -5.696981E+01  4.154780E-07  1.597983E+03  5.345233E-10
         2  11  1.759721E+05 -3.299708E+01 -2.811286E+01  4.456659E-07  6.825552E+02  1.377155E-09
         2  12  1.759592E+05 -2.248014E+01 -2.565772E+01  4.414921E-07 -2.328355E+02 -1.450763E-09
         2  13  1.762672E+05 -2.028286E+01 -2.028286E+01  1.350747E-07  7.317796E-08 -2.122026E-09
         2  14  1.762621E+05  1.408438E+01  1.408438E+01  1.761832E-07  9.674591E-08  8.401616E-11
         2  15  1.762601E+05  1.407022E+01  1.407022E+01  2.201599E-07  1.195187E-07  1.463310E-10
         2  16  1.760297E+05 -7.867142E+01 -5.696981E+01 -1.470024E-07 -1.597983E+03 -1.797486E-09
         2  17  1.759721E+05 -3.299708E+01 -2.811286E+01 -9.612908E-08 -6.825552E+02  1.599147E-09
         2  18  1.759592E+05 -2.248014E+01 -2.565772E+01 -2.860024E-09  2.328355E+02  1.133110E-09
         2  19  1.762332E+05 -7.896160E+01 -7.896160E+01  3.373873E+03  3.373873E+03  1.759870E+00
         2  20  1.757630E+05 -7.146471E+01 -7.146471E+01  1.442125E+03  1.442125E+03 -2.405003E+00
         2  21  1.756669E+05 -4.994104E+01 -4.994104E+01 -4.896179E+02 -4.896179E+02  1.081706E+01
         2  22  1.760297E+05 -5.696981E+01 -7.867142E+01  1.597983E+03 -2.256985E-07 -1.651986E-08
         2  23  1.759721E+05 -2.811286E+01 -3.299708E+01  6.825552E+02 -1.679493E-07 -1.819350E-09
         2  24  1.759592E+05 -2.565772E+01 -2.248014E+01 -2.328355E+02 -1.018337E-07  8.925922E-10
         2  25  1.762332E+05 -7.896160E+01 -7.896160E+01  3.373873E+03 -3.373873E+03 -1.759870E+00
         2  26  1.757630E+05 -7.146471E+01 -7.146471E+01  1.442125E+03 -1.442125E+03  2.405003E+00
         2  27  1.756669E+05 -4.994104E+01 -4.994104E+01 -4.896179E+02  4.896179E+02 -1.081706E+01
         3   1  1.760571E+05  2.125098E+01  2.125098E+01  8.986155E+02 -8.986155E+02 -1.636126E+01
         3   2  1.760061E+05  3.377301E+01  3.377301E+01  3.846032E+02 -3.846032E+02 -7.827627E+00
         3   3  1.759849E+05  1.096043E+01  1.096043E+01 -1.292251E+02  1.292251E+02  5.690844E+00
         3   4  1.759426E+05 -1.852600E+01 -1.458175E+01  4.221678E+02  3.312671E-07  1.130729E-09
         3   5  1.759199E+05  9.199373E+00  1.155036E+01  1.805348E+02  3.654118E-07  9.250821E-11
         3   6  1.759028E+05  8.973331E+00  7.021675E+00 -6.114540E+01  4.078915E-07  9.244070E-11
         3   7  1.760571E+05  2.125098E+01  2.125098E+01  8.986155E+02  8.986155E+02  1.636126E+01
         3   8  1.760061E+05  3.377301E+01  3.377301E+01  3.846032E+02  3.846032E+02  7.827627E+00
         3   9  1.759849E+05  1.096043E+01  1.096043E+01 -1.292251E+02 -1.292251E+02 -5.690844E+00
         3  10  1.759426E+05 -1.458175E+01 -1.852600E+01  4.382174E-07 -4.221678E+02 -2.419274E-09
         3  11  1.759199E+05  1.155036E+01  9.199373E+00  4.946572E-07 -1.805348E+02 -1.122615E-09
         3  12  1.759028E+05  7.021675E+00  8.973331E+00  5.551214E-07  6.114540E+01 -1.909880E-10
         3  13  1.758580E+05 -3.443102E+01 -3.443102E+01  2.422584E-07  1.331612E-07 -5.982602E-11
         3  14  1.758388E+05 -4.229853E+00 -4.229853E+00  2.818650E-07  1.541034E-07  2.164032E-10
         3  15  1.758219E+05 -9.772680E-01 -9.772680E-01  3.220075E-07  1.750985E-07 -3.095850E-11
         3  16  1.759426E+05 -1.458175E+01 -1.852600E+01  4.755132E-08  4.221678E+02  4.826730E-10
         3  17  1.759199E+05  1.155036E+01  9.199373E+00  6.965691E-08  1.805348E+02  7.438588E-10
         3  18  1.759028E+05  7.021675E+00  8.973331E+00  8.924328E-08 -6.114540E+01  7.091016E-10
         3  19  1.760571E+05  2.125098E+01  2.125098E+01 -8.986155E+02 -8.986155E+02  1.636126E+01
         3  20  1.760061E+05  3.377301E+01  3.377301E+01 -3.846032E+02 -3.846032E+02  7.827627E+00
         3  21  1.759849E+05  1.096043E+01  1.096043E+01  1.292251E+02  1.292251E+02 -5.690844E+00
         3  22  1.759426E+05 -1.852600E+01 -1.458175E+01 -4.221678E+02 -6.612125E-08  1.474472E-10
         3  23  1.759199E+05  9.199373E+00  1.155036E+01 -1.805348E+02 -5.811387E-08  1.067768E-09
         3  24  1.759028E+05  8.973331E+00  7.021675E+00  6.114540E+01 -5.856145E-08 -6.950732E-10
         3  25  1.760571E+05  2.125098E+01  2.125098E+01 -8.986155E+02  8.986155E+02 -1.636126E+01
         3  26  1.760061E+05  3.377301E+01  3.377301E+01 -3.846032E+02  3.846032E+02 -7.827627E+00
         3  27  1.759849E+05  1.096043E+01  1.096043E+01  1.292251E+02 -1.292251E+02  5.690844E+00
         4   1  1.759060E+05 -1.322338E+01 -1.322338E+01 -2.403839E+02  2.403839E+02  9.178339E+00
         4   2  1.759067E+05 -9.898397E+00 -9.898397E+00 -1.028670E+02  1.028670E+02  3.925804E+00
         4   3  1.759089E+05 -2.085514E+00 -2.085514E+00  3.468645E+01 -3.468645E+01 -2.168457E+00
         4   4  1.759238E+05  4.926965E+00  1.718187E+00 -1.131213E+02  4.247314E-07  3.070730E-10
         4   5  1.759272E+05 -3.725995E-01 -1.717185E+00 -4.819796E+01  4.355375E-07  3.179192E-10
         4   6  1.759306E+05 -2.638794E+00 -1.910012E+00  1.672124E+01  4.468133E-07  1.988848E-10
         4   7  1.759060E+05 -1.322338E+01 -1.322338E+01 -2.403839E+02 -2.403839E+02 -9.178339E+00
         4   8  1.759067E+05 -9.898397E+00 -9.898397E+00 -1.028670E+02 -1.028670E+02 -3.925804E+00
         4   9  1.759089E+05 -2.085514E+00 -2.085514E+00  3.468645E+01  3.468645E+01  2.168457E+00
         4  10  1.759238E+05  1.718187E+00  4.926965E+00  5.821567E-07  1.131213E+02 -1.005492E-10
         4  11  1.759272E+05 -1.717185E+00 -3.725995E-01  6.127117E-07  4.819796E+01 -4.203377E-10
         4  12  1.759306E+05 -1.910012E+00 -2.638794E+00  6.414470E-07 -1.672124E+01 -5.702813E-10
         4  13  1.759447E+05  1.026123E+01  1.026123E+01  3.446300E-07  1.869184E-07 -1.389893E-10
         4  14  1.759486E+05  3.655545E+00  3.655545E+00  3.826166E-07  2.055861E-07 -1.479623E-12
         4  15  1.759522E+05 -1.477492E-01 -1.477492E-01  4.191915E-07  2.245112E-07  1.436169E-11
         4  16  1.759238E+05  1.718187E+00  4.926965E+00  1.066255E-07 -1.131213E+02  6.177940E-10
         4  17  1.759272E+05 -1.717185E+00 -3.725995E-01  1.503908E-07 -4.819796E+01  6.050728E-10
         4  18  1.759306E+05 -1.910012E+00 -2.638794E+00  1.969716E-07  1.672124E+01  7.396176E-10
         4  19  1.759060E+05 -1.322338E+01 -1.322338E+01  2.403839E+02  2.403839E+02 -9.178339E+00
         4  20  1.759067E+05 -9.898397E+00 -9.898397E+00  1.028670E+02  1.028670E+02 -3.925804E+00
         4  21  1.759089E+05 -2.085514E+00 -2.085514E+00 -3.468645E+01 -3.468645E+01  2.168457E+00
         4  22  1.759238E+05  4.926965E+00  1.718187E+00  1.131213E+02 -5.068805E-08 -1.335275E-09
         4  23  1.759272E+05 -3.725995E-01 -1.717185E+00  4.819796E+01 -2.497355E-08 -4.699246E-10
         4  24  1.759306E+05 -2.638794E+00 -1.910012E+00 -1.672124E+01  1.615229E-09 -3.175412E-10
         4  25  1.759060E+05 -1.322338E+01 -1.322338E+01  2.403839E+02 -2.403839E+02  9.178339E+00
         4  26  1.759067E+05 -9.898397E+00 -9.898397E+00  1.028670E+02 -1.028670E+02  3.925804E+00
         4  27  1.759089E+05 -2.085514E+00 -2.085514E+00 -3.468645E+01  3.468645E+01 -2.168457E+00
         5   1  1.759332E+05  4.462366E+00  4.462366E+00  6.412323E+01 -6.412323E+01 -3.576151E+00
         5   2  1.759316E+05  3.431870E+00  3.431870E+00  2.744679E+01 -2.744679E+01 -1.570585E+00
         5   3  1.759302E+05  5.249586E-01  5.249586E-01 -9.225968E+00  9.225969E+00  7.495961E-01
         5   4  1.759277E+05 -2.277880E+00 -1.080189E+00  3.007777E+01  4.468141E-07  3.353289E-10
         5   5  1.759260E+05  1.836522E-02  5.464644E-01  1.279645E+01  4.632231E-07  5.601405E-10
         5   6  1.759244E+05  9.548547E-01  7.019187E-01 -4.485299E+00  4.802125E-07  7.415768E-11
         5   7  1.759332E+05  4.462366E+00  4.462366E+00  6.412323E+01  6.412323E+01  3.576151E+00
         5   8  1.759316E+05  3.431870E+00  3.431870E+00  2.744679E+01  2.744679E+01  1.570585E+00
         5   9  1.759302E+05  5.249586E-01  5.249586E-01 -9.225968E+00 -9.225968E+00 -7.495961E-01
         5  10  1.759277E+05 -1.080189E+00 -2.277880E+00  6.513393E-07 -3.007777E+01 -7.541451E-10
         5  11  1.759260E+05  5.464644E-01  1.836522E-02  6.869953E-07 -1.279645E+01 -9.104016E-10
         5  12  1.759244E+05  7.019187E-01  9.548547E-01  7.238606E-07  4.485299E+00 -3.765156E-10
         5  13  1.759221E+05 -3.995520E+00 -3.995520E+00  4.396364E-07  2.345727E-07  3.116390E-12
         5  14  1.759203E+05 -1.190509E+00 -1.190509E+00  4.743063E-07  2.501099E-07  1.030500E-11
         5  15  1.759186E+05  3.330212E-01  3.330212E-01  5.091493E-07  2.671479E-07 -5.645254E-12
         5  16  1.759277E+05 -1.080189E+00 -2.277880E+00  2.281057E-07  3.007777E+01  5.964234E-10
         5  17  1.759260E+05  5.464644E-01  1.836522E-02  2.609556E-07  1.279645E+01  3.169387E-10
         5  18  1.759244E+05  7.019187E-01  9.548547E-01  2.945711E-07 -4.485299E+00  7.178742E-10
         5  19  1.759332E+05  4.462366E+00  4.462366E+00 -6.412323E+01 -6.412323E+01  3.576151E+00
         5  20  1.759316E+05  3.431870E+00  3.431870E+00 -2.744679E+01 -2.744679E+01  1.570585E+00
         5  21  1.759302E+05  5.249586E-01  5.249586E-01  9.225969E+00  9.225969E+00 -7.495961E-01
         5  22  1.759277E+05 -2.277880E+00 -1.080189E+00 -3.007777E+01  2.186676E-08 -1.902776E-10
         5  23  1.759260E+05  1.836522E-02  5.464644E-01 -1.279645E+01  3.809344E-08  6.632448E-11
         5  24  1.759244E+05  9.548547E-01  7.019187E-01  4.485300E+00  5.251996E-08 -4.336632E-10
         5  25  1.759332E+05  4.462366E+00  4.462366E+00 -6.412323E+01  6.412323E+01 -3.576151E+00
         5  26  1.759316E+05  3.431870E+00  3.431870E+00 -2.744679E+01  2.744679E+01 -1.570585E+00
         5  27  1.759302E+05  5.249586E-01  5.249586E-01  9.225969E+00 -9.225968E+00  7.495961E-01
         6   1  1.759240E+05 -1.437146E+00 -1.437146E+00 -1.710919E+01  1.710919E+01  1.284392E+00
         6   2  1.759244E+05 -8.973306E-01 -8.973306E-01 -7.323898E+00  7.323899E+00  5.538039E-01
         6   3  1.759248E+05  5.318325E-02  5.318325E-02  2.461754E+00 -2.461753E+00 -2.472324E-01
         6   4  1.759254E+05  9.058948E-01  4.722089E-01 -8.016946E+00  4.826759E-07  1.951322E-11
         6   5  1.759259E+05  2.361450E-01  4.929560E-02 -3.402339E+00  4.942165E-07  3.800952E-10
         6   6  1.759264E+05 -1.398807E-01 -5.652744E-02  1.212229E+00  5.070338E-07  1.312934E-10
         6   7  1.759240E+05 -1.437146E+00 -1.437146E+00 -1.710919E+01 -1.710919E+01 -1.284392E+00
         6   8  1.759244E+05 -8.973306E-01 -8.973306E-01 -7.323898E+00 -7.323898E+00 -5.538039E-01
         6   9  1.759248E+05  5.318325E-02  5.318325E-02  2.461754E+00  2.461754E+00  2.472324E-01
         6  10  1.759254E+05  4.722089E-01  9.058948E-01  7.359218E-07  8.016946E+00 -2.985897E-10
         6  11  1.759259E+05  4.929560E-02  2.361450E-01  7.655888E-07  3.402340E+00 -6.518049E-10
         6  12  1.759264E+05 -5.652744E-02 -1.398807E-01  7.954053E-07 -1.212229E+00 -4.453557E-10
         6  13  1.759269E+05  1.446975E+00  1.446975E+00  5.269706E-07  2.758114E-07 -1.124252E-11
         6  14  1.759274E+05  5.925694E-01  5.925694E-01  5.599381E-07  2.879721E-07 -2.278331E-13
         6  15  1.759279E+05  1.398266E-02  1.398266E-02  5.917623E-07  3.031881E-07  1.022295E-11
         6  16  1.759254E+05  4.722089E-01  9.058948E-01  3.201326E-07 -8.016946E+00  7.359242E-10
         6  17  1.759259E+05  4.929560E-02  2.361450E-01  3.535062E-07 -3.402339E+00  3.573705E-10
         6  18  1.759264E+05 -5.652744E-02 -1.398807E-01  3.876320E-07  1.212229E+00  5.901082E-10
         6  19  1.759240E+05 -1.437146E+00 -1.437146E+00  1.710919E+01  1.710919E+01 -1.284392E+00
         6  20  1.759244E+05 -8.973306E-01 -8.973306E-01  7.323899E+00  7.323899E+00 -5.538039E-01
         6  21  1.759248E+05  5.318325E-02  5.318325E-02 -2.461753E+00 -2.461753E+00  2.472324E-01
         6  22  1.759254E+05  9.058948E-01  4.722089E-01  8.016947E+00  6.758782E-08 -4.973189E-10
         6  23  1.759259E+05  2.361450E-01  4.929560E-02  3.402340E+00  8.336438E-08 -8.635422E-11
         6  24  1.759264E+05 -1.398807E-01 -5.652744E-02 -1.212228E+00  9.950626E-08 -2.346687E-10
         6  25  1.759240E+05 -1.437146E+00 -1.437146E+00  1.710919E+01 -1.710919E+01  1.284392E+00
         6  26  1.759244E+05 -8.973306E-01 -8.973306E-01  7.323899E+00 -7.323898E+00  5.538039E-01
         6  27  1.759248E+05  5.318325E-02  5.318325E-02 -2.461753E+00  2.461754E+00 -2.472324E-01
         7   1  1.759265E+05  6.082197E-01  6.082197E-01  4.559430E+00 -4.559429E+00 -4.268947E-01
         7   2  1.759264E+05  4.228056E-01  4.228056E-01  1.952300E+00 -1.952299E+00 -1.845112E-01
         7   3  1.759263E+05  1.168189E-01  1.168189E-01 -6.547980E-01  6.547993E-01  7.840857E-02
         7   4  1.759262E+05 -1.564591E-01 -1.255445E-02  2.132131E+00  5.108352E-07  8.102322E-11
         7   5  1.759260E+05  5.956564E-02  1.217744E-01  9.030879E-01  5.217033E-07  2.877095E-10
         7   6  1.759258E+05  1.890067E-01  1.625666E-01 -3.259583E-01  5.310140E-07  7.246303E-11
         7   7  1.759265E+05  6.082197E-01  6.082197E-01  4.559430E+00  4.559430E+00  4.268947E-01
         7   8  1.759264E+05  4.228056E-01  4.228056E-01  1.952300E+00  1.952300E+00  1.845112E-01
         7   9  1.759263E+05  1.168189E-01  1.168189E-01 -6.547983E-01 -6.547983E-01 -7.840857E-02
         7  10  1.759262E+05 -1.255446E-02 -1.564591E-01  8.073262E-07 -2.132130E+00 -4.083310E-10
         7  11  1.759260E+05  1.217744E-01  5.956564E-02  8.362013E-07 -9.030869E-01 -5.811289E-10
         7  12  1.759258E+05  1.625666E-01  1.890067E-01  8.644041E-07  3.259593E-01 -3.244424E-10
         7  13  1.759258E+05 -3.220926E-01 -3.220926E-01  6.085090E-07  3.109263E-07  1.779575E-12
         7  14  1.759256E+05 -4.476251E-02 -4.476251E-02  6.387619E-07  3.227629E-07 -9.468884E-12
         7  15  1.759254E+05  1.511712E-01  1.511712E-01  6.665992E-07  3.341385E-07  2.124882E-11
         7  16  1.759262E+05 -1.255446E-02 -1.564591E-01  4.093853E-07  2.132130E+00  5.958869E-10
         7  17  1.759260E+05  1.217744E-01  5.956564E-02  4.391089E-07  9.030876E-01  3.308978E-10
         7  18  1.759258E+05  1.625666E-01  1.890067E-01  4.679651E-07 -3.259586E-01  6.039854E-10
         7  19  1.759265E+05  6.082197E-01  6.082197E-01 -4.559429E+00 -4.559429E+00  4.268947E-01
         7  20  1.759264E+05  4.228056E-01  4.228056E-01 -1.952298E+00 -1.952299E+00  1.845112E-01
         7  21  1.759263E+05  1.168189E-01  1.168189E-01  6.547996E-01  6.547990E-01 -7.840857E-02
         7  22  1.759262E+05 -1.564591E-01 -1.255446E-02 -2.132129E+00  1.117137E-07 -2.662563E-10
         7  23  1.759260E+05  5.956564E-02  1.217744E-01 -9.030866E-01  1.240582E-07 -9.059185E-11
         7  24  1.759258E+05  1.890067E-01  1.625666E-01  3.259596E-01  1.363754E-07 -2.695322E-10
         7  25  1.759265E+05  6.082197E-01  6.082197E-01 -4.559429E+00  4.559429E+00 -4.268947E-01
         7  26  1.759264E+05  4.228056E-01  4.228056E-01 -1.952299E+00  1.952299E+00 -1.845112E-01
         7  27  1.759263E+05  1.168189E-01  1.168189E-01  6.547993E-01 -6.547986E-01  7.840857E-02
         8   1  1.759258E+05 -4.288239E-02 -4.288239E-02 -1.214239E+00  1.214240E+00  1.370055E-01
         8   2  1.759258E+05  2.160499E-02  2.160499E-02 -5.207204E-01  5.207218E-01  5.882880E-02
         8   3  1.759259E+05  1.166962E-01  1.166962E-01  1.728005E-01 -1.727991E-01 -2.456987E-02
         8   4  1.759259E+05  1.993491E-01  1.531481E-01 -5.668852E-01  5.326906E-07  1.207047E-10
         8   5  1.759259E+05  1.343692E-01  1.145317E-01 -2.398965E-01  5.408518E-07  3.557957E-10
         8   6  1.759260E+05  9.134343E-02  9.962825E-02  8.709179E-02  5.497558E-07 -6.249003E-11
         8   7  1.759258E+05 -4.288239E-02 -4.288239E-02 -1.214239E+00 -1.214239E+00 -1.370055E-01
         8   8  1.759258E+05  2.160499E-02  2.160499E-02 -5.207207E-01 -5.207208E-01 -5.882880E-02
         8   9  1.759259E+05  1.166962E-01  1.166962E-01  1.728002E-01  1.728001E-01  2.456987E-02
         8  10  1.759259E+05  1.531481E-01  1.993491E-01  8.750946E-07  5.668862E-01 -3.418989E-10
         8  11  1.759259E+05  1.145317E-01  1.343692E-01  8.968002E-07  2.398976E-01 -5.611925E-10
         8  12  1.759260E+05  9.962825E-02  9.134343E-02  9.191515E-07 -8.709071E-02 -2.030763E-10
         8  13  1.759260E+05  2.493344E-01  2.493344E-01  6.814837E-07  3.409290E-07  2.551331E-11
         8  14  1.759261E+05  1.645844E-01  1.645844E-01  7.044163E-07  3.501474E-07 -6.570108E-12
         8  15  1.759261E+05  1.004675E-01  1.004675E-01  7.280307E-07  3.586741E-07 -1.974728E-11
         8  16  1.759259E+05  1.531481E-01  1.993491E-01  4.876278E-07 -5.668855E-01  5.509306E-10
         8  17  1.759259E+05  1.145317E-01  1.343692E-01  5.113649E-07 -2.398969E-01  2.039938E-10
         8  18  1.759260E+05  9.962825E-02  9.134343E-02  5.392226E-07  8.709143E-02  5.623842E-10
         8  19  1.759258E+05 -4.288239E-02 -4.288239E-02  1.214240E+00  1.214240E+00 -1.370055E-01
         8  20  1.759258E+05  2.160499E-02  2.160499E-02  5.207222E-01  5.207215E-01 -5.882880E-02
         8  21  1.759259E+05  1.166962E-01  1.166962E-01 -1.727987E-01 -1.727994E-01  2.456987E-02
         8  22  1.759259E+05  1.993491E-01  1.531481E-01  5.668865E-01  1.473313E-07 -2.254610E-10
         8  23  1.759259E+05  1.343692E-01  1.145317E-01  2.398980E-01  1.576062E-07 -1.854839E-11
         8  24  1.759260E+05  9.134343E-02  9.962825E-02 -8.709033E-02  1.672252E-07 -3.628437E-10
         8  25  1.759258E+05 -4.288239E-02 -4.288239E-02  1.214240E+00 -1.214239E+00  1.370055E-01
         8  26  1.759258E+05  2.160499E-02  2.160499E-02  5.207218E-01 -5.207211E-01  5.882880E-02
         8  27  1.759259E+05  1.166962E-01  1.166962E-01 -1.727990E-01  1.727998E-01 -2.456987E-02
         9   1  1.759260E+05  1.617237E-01  1.617237E-01  3.223418E-01 -3.223404E-01 -4.281597E-02
         9   2  1.759260E+05  1.403320E-01  1.403320E-01  1.410185E-01 -1.410171E-01 -1.785022E-02
         9   3  1.759260E+05  1.107770E-01  1.107770E-01 -4.030459E-02  4.030604E-02  8.507732E-03
         9   4  1.759260E+05  8.680542E-02  1.012426E-01  1.501681E-01  5.465638E-07  1.046746E-11
         9   5  1.759260E+05  1.067598E-01  1.127788E-01  6.468113E-02  5.534573E-07  4.303796E-10
         9   6  1.759260E+05  1.208564E-01  1.179876E-01 -2.080590E-02  5.615056E-07 -1.893067E-10
         9   7  1.759260E+05  1.617237E-01  1.617237E-01  3.223415E-01  3.223414E-01  4.281597E-02
         9   8  1.759260E+05  1.403320E-01  1.403320E-01  1.410182E-01  1.410181E-01  1.785022E-02
         9   9  1.759260E+05  1.107770E-01  1.107770E-01 -4.030489E-02 -4.030499E-02 -8.507732E-03
         9  10  1.759260E+05  1.012426E-01  8.680542E-02  9.254959E-07 -1.501670E-01 -2.705864E-10
         9  11  1.759260E+05  1.127788E-01  1.067598E-01  9.450371E-07 -6.467999E-02 -6.297935E-10
         9  12  1.759260E+05  1.179876E-01  1.208564E-01  9.631466E-07  2.080707E-02 -3.595408E-11
         9  13  1.759260E+05  7.196709E-02  7.196709E-02  7.411740E-07  3.646552E-07 -1.269173E-11
         9  14  1.759259E+05  9.823523E-02  9.823523E-02  7.618025E-07  3.720717E-07 -2.329999E-12
         9  15  1.759259E+05  1.189977E-01  1.189977E-01  7.849160E-07  3.828900E-07 -1.480352E-11
         9  16  1.759260E+05  1.012426E-01  8.680542E-02  5.615394E-07  1.501678E-01  4.925221E-10
         9  17  1.759260E+05  1.127788E-01  1.067598E-01  5.834672E-07  6.468073E-02  7.375593E-11
         9  18  1.759260E+05  1.179876E-01  1.208564E-01  6.067406E-07 -2.080631E-02  6.421145E-10
         9  19  1.759260E+05  1.617237E-01  1.617237E-01 -3.223400E-01 -3.223407E-01  4.281597E-02
         9  20  1.759260E+05  1.403320E-01  1.403320E-01 -1.410167E-01 -1.410173E-01  1.785022E-02
         9  21  1.759260E+05  1.107770E-01  1.107770E-01  4.030645E-02  4.030576E-02 -8.507733E-03
         9  22  1.759260E+05  8.680542E-02  1.012426E-01 -1.501666E-01  1.804521E-07 -2.625407E-10
         9  23  1.759260E+05  1.067598E-01  1.127788E-01 -6.467960E-02  1.919666E-07  1.357382E-10
         9  24  1.759260E+05  1.208564E-01  1.179876E-01  2.080747E-02  2.036236E-07 -4.600004E-10
         9  25  1.759260E+05  1.617237E-01  1.617237E-01 -3.223403E-01  3.223411E-01 -4.281597E-02
         9  26  1.759260E+05  1.403320E-01  1.403320E-01 -1.410170E-01  1.410178E-01 -1.785022E-02
         9  27  1.759260E+05  1.107770E-01  1.107770E-01  4.030616E-02 -4.030529E-02  8.507733E-03
        10   1  1.759260E+05  9.894341E-02  9.894341E-02 -8.268404E-02  8.268549E-02  1.365568E-02
        10   2  1.759260E+05  1.080135E-01  1.080135E-01 -4.660159E-02  4.660307E-02  3.913406E-03
        10   3  1.759260E+05  1.186873E-01  1.186873E-01 -1.051912E-02  1.052062E-02 -6.102399E-03
        10   4  1.759260E+05  1.223567E-01  1.177520E-01 -3.828222E-02  5.539281E-07 -8.403109E-11
        10   5  1.759260E+05  1.152925E-01  1.139730E-01 -2.127004E-02  5.567919E-07  5.686610E-10
        10   6  1.759260E+05  1.093790E-01  1.114367E-01 -4.257872E-03  5.609527E-07 -3.301021E-10
        10   7  1.759260E+05  9.894341E-02  9.894341E-02 -8.268431E-02 -8.268446E-02 -1.365568E-02
        10   8  1.759260E+05  1.080135E-01  1.080135E-01 -4.660186E-02 -4.660201E-02 -3.913406E-03
        10   9  1.759260E+05  1.186873E-01  1.186873E-01 -1.051938E-02 -1.051955E-02  6.102399E-03
        10  10  1.759260E+05  1.177520E-01  1.223567E-01  9.609223E-07  3.828340E-02 -1.239720E-10
        10  11  1.759260E+05  1.139729E-01  1.152925E-01  9.773416E-07  2.127125E-02 -7.024273E-10
        10  12  1.759260E+05  1.114367E-01  1.093790E-01  9.930085E-07  4.259097E-03  1.683770E-10
        10  13  1.759260E+05  1.266082E-01  1.266082E-01  7.970702E-07  3.855788E-07 -6.967144E-12
        10  14  1.759260E+05  1.170802E-01  1.170802E-01  8.113050E-07  3.919045E-07  1.332945E-11
        10  15  1.759260E+05  1.086338E-01  1.086338E-01  8.314217E-07  3.998451E-07 -1.810337E-11
        10  16  1.759260E+05  1.177520E-01  1.223567E-01  6.321211E-07 -3.828263E-02  5.116579E-10
        10  17  1.759260E+05  1.139729E-01  1.152925E-01  6.505753E-07 -2.127047E-02 -1.544482E-10
        10  18  1.759260E+05  1.114367E-01  1.093790E-01  6.735881E-07 -4.258302E-03  7.069428E-10
        10  19  1.759260E+05  9.894341E-02  9.894341E-02  8.268591E-02  8.268523E-02 -1.365568E-02
        10  20  1.759260E+05  1.080135E-01  1.080135E-01  4.660349E-02  4.660279E-02 -3.913406E-03
        10  21  1.759260E+05  1.186873E-01  1.186873E-01  1.052105E-02  1.052037E-02  6.102399E-03
        10  22  1.759260E+05  1.223567E-01  1.177520E-01  3.828381E-02  2.181498E-07 -3.163575E-10
        10  23  1.759260E+05  1.152925E-01  1.139729E-01  2.127167E-02  2.265541E-07  3.506573E-10
        10  24  1.759260E+05  1.093790E-01  1.114367E-01  4.259537E-03  2.411276E-07 -6.316945E-10
        10  25  1.759260E+05  9.894341E-02  9.894341E-02  8.268563E-02 -8.268473E-02  1.365568E-02
        10  26  1.759260E+05  1.080135E-01  1.080135E-01  4.660323E-02 -4.660229E-02  3.913406E-03
        10  27  1.759260E+05  1.186873E-01  1.186873E-01  1.052079E-02 -1.051982E-02 -6.102399E-03
        11   1  1.759260E+05  1.186873E-01  1.186873E-01  1.052104E-02 -1.051958E-02 -6.102399E-03
        11   2  1.759260E+05  1.080135E-01  1.080135E-01  4.660350E-02 -4.660202E-02  3.913406E-03
        11   3  1.759260E+05  9.894342E-02  9.894341E-02  8.268595E-02 -8.268446E-02  1.365568E-02
        11   4  1.759260E+05  1.093790E-01  1.114367E-01  4.259553E-03  5.421258E-07 -1.842435E-10
        11   5  1.759260E+05  1.152925E-01  1.139730E-01  2.127171E-02  5.460946E-07  7.780263E-10
        11   6  1.759260E+05  1.223567E-01  1.177520E-01  3.828389E-02  5.471228E-07 -4.990459E-10
        11   7  1.759260E+05  1.186873E-01  1.186873E-01  1.052081E-02  1.052060E-02  6.102399E-03
        11   8  1.759260E+05  1.080135E-01  1.080135E-01  4.660328E-02  4.660306E-02 -3.913406E-03
        11   9  1.759260E+05  9.894341E-02  9.894342E-02  8.268574E-02  8.268550E-02 -1.365568E-02