    1C
    1UUSER                                                              
    1UDATE              04.march.2015                                   
    1UTIME              20:07:34                                        
    1UHOST                                                              
    1UPGM               CalculiX                                        
    1UDIR                                                               
    1UDBN                                                               
    1UMAT    1EL1                                                       
    1UMAT    2EL2                                                       
    2C                           102                                     1
 -1        25-7.45058E-09-7.45058E-09-1.00000E-02
 -1        26-7.45058E-09-7.45058E-09-5.00000E-03
 -1        27-7.45058E-09-7.45058E-09 0.00000E+00
 -1        28-7.45058E-09-7.45058E-09 0.00000E+00
 -1        29-7.45058E-09-7.45058E-09 5.00000E-03
 -1        30-7.45058E-09-7.45058E-09 1.00000E-02
 -1        34 5.00000E-01-7.45058E-09-1.00000E-02
 -1        35 5.00000E-01-7.45058E-09-5.00000E-03
 -1        36 5.00000E-01-7.45058E-09 0.00000E+00
 -1        37 5.00000E-01-7.45058E-09 0.00000E+00
 -1        38 5.00000E-01-7.45058E-09 5.00000E-03
 -1        39 5.00000E-01-7.45058E-09 1.00000E-02
 -1        43 5.00000E-01 5.00000E-02-1.00000E-02
 -1        44 5.00000E-01 5.00000E-02-5.00000E-03
 -1        45 5.00000E-01 5.00000E-02 0.00000E+00
 -1        46 5.00000E-01 5.00000E-02 0.00000E+00
 -1        47 5.00000E-01 5.00000E-02 5.00000E-03
 -1        48 5.00000E-01 5.00000E-02 1.00000E-02
 -1        52-7.45058E-09 5.00000E-02-1.00000E-02
 -1        53-7.45058E-09 5.00000E-02-5.00000E-03
 -1        54-7.45058E-09 5.00000E-02 0.00000E+00
 -1        55-7.45058E-09 5.00000E-02 0.00000E+00
 -1        56-7.45058E-09 5.00000E-02 5.00000E-03
 -1        57-7.45058E-09 5.00000E-02 1.00000E-02
 -1        61 2.50000E-01-7.45058E-09-1.00000E-02
 -1        63 2.50000E-01-7.45058E-09 0.00000E+00
 -1        64 2.50000E-01-7.45058E-09 0.00000E+00
 -1        66 2.50000E-01-7.45058E-09 1.00000E-02
 -1        70 5.00000E-01 2.50000E-02-1.00000E-02
 -1        72 5.00000E-01 2.50000E-02 0.00000E+00
 -1        73 5.00000E-01 2.50000E-02 0.00000E+00
 -1        75 5.00000E-01 2.50000E-02 1.00000E-02
 -1        79 2.50000E-01 5.00000E-02-1.00000E-02
 -1        81 2.50000E-01 5.00000E-02 0.00000E+00
 -1        82 2.50000E-01 5.00000E-02 0.00000E+00
 -1        84 2.50000E-01 5.00000E-02 1.00000E-02
 -1        88-7.45058E-09 2.50000E-02-1.00000E-02
 -1        90-7.45058E-09 2.50000E-02 0.00000E+00
 -1        91-7.45058E-09 2.50000E-02 0.00000E+00
 -1        93-7.45058E-09 2.50000E-02 1.00000E-02
 -1        97 5.00000E-01 1.00000E-01-1.00000E-02
 -1        98 5.00000E-01 1.00000E-01-5.00000E-03
 -1        99 5.00000E-01 1.00000E-01 0.00000E+00
 -1       100 5.00000E-01 1.00000E-01 0.00000E+00
 -1       101 5.00000E-01 1.00000E-01 5.00000E-03
 -1       102 5.00000E-01 1.00000E-01 1.00000E-02
 -1       106-7.45058E-09 1.00000E-01-1.00000E-02
 -1       107-7.45058E-09 1.00000E-01-5.00000E-03
 -1       108-7.45058E-09 1.00000E-01 0.00000E+00
 -1       109-7.45058E-09 1.00000E-01 0.00000E+00
 -1       110-7.45058E-09 1.00000E-01 5.00000E-03
 -1       111-7.45058E-09 1.00000E-01 1.00000E-02
 -1       115 5.00000E-01 7.50000E-02-1.00000E-02
 -1       117 5.00000E-01 7.50000E-02 0.00000E+00
 -1       118 5.00000E-01 7.50000E-02 0.00000E+00
 -1       120 5.00000E-01 7.50000E-02 1.00000E-02
 -1       124 2.50000E-01 1.00000E-01-1.00000E-02
 -1       126 2.50000E-01 1.00000E-01 0.00000E+00
 -1       127 2.50000E-01 1.00000E-01 0.00000E+00
 -1       129 2.50000E-01 1.00000E-01 1.00000E-02
 -1       133-7.45058E-09 7.50000E-02-1.00000E-02
 -1       135-7.45058E-09 7.50000E-02 0.00000E+00
 -1       136-7.45058E-09 7.50000E-02 0.00000E+00
 -1       138-7.45058E-09 7.50000E-02 1.00000E-02
 -1       142 1.00000E+00-7.45058E-09-1.00000E-02
 -1       143 1.00000E+00-7.45058E-09-5.00000E-03
 -1       144 1.00000E+00-7.45058E-09 0.00000E+00
 -1       145 1.00000E+00-7.45058E-09 0.00000E+00
 -1       146 1.00000E+00-7.45058E-09 5.00000E-03
 -1       147 1.00000E+00-7.45058E-09 1.00000E-02
 -1       151 1.00000E+00 5.00000E-02-1.00000E-02
 -1       152 1.00000E+00 5.00000E-02-5.00000E-03
 -1       153 1.00000E+00 5.00000E-02 0.00000E+00
 -1       154 1.00000E+00 5.00000E-02 0.00000E+00
 -1       155 1.00000E+00 5.00000E-02 5.00000E-03
 -1       156 1.00000E+00 5.00000E-02 1.00000E-02
 -1       160 7.50000E-01-7.45058E-09-1.00000E-02
 -1       162 7.50000E-01-7.45058E-09 0.00000E+00
 -1       163 7.50000E-01-7.45058E-09 0.00000E+00
 -1       165 7.50000E-01-7.45058E-09 1.00000E-02
 -1       169 1.00000E+00 2.50000E-02-1.00000E-02
 -1       171 1.00000E+00 2.50000E-02 0.00000E+00
 -1       172 1.00000E+00 2.50000E-02 0.00000E+00
 -1       174 1.00000E+00 2.50000E-02 1.00000E-02
 -1       178 7.50000E-01 5.00000E-02-1.00000E-02
 -1       180 7.50000E-01 5.00000E-02 0.00000E+00
 -1       181 7.50000E-01 5.00000E-02 0.00000E+00
 -1       183 7.50000E-01 5.00000E-02 1.00000E-02
 -1       187 1.00000E+00 1.00000E-01-1.00000E-02
 -1       188 1.00000E+00 1.00000E-01-5.00000E-03
 -1       189 1.00000E+00 1.00000E-01 0.00000E+00
 -1       190 1.00000E+00 1.00000E-01 0.00000E+00
 -1       191 1.00000E+00 1.00000E-01 5.00000E-03
 -1       192 1.00000E+00 1.00000E-01 1.00000E-02
 -1       196 1.00000E+00 7.50000E-02-1.00000E-02
 -1       198 1.00000E+00 7.50000E-02 0.00000E+00
 -1       199 1.00000E+00 7.50000E-02 0.00000E+00
 -1       201 1.00000E+00 7.50000E-02 1.00000E-02
 -1       205 7.50000E-01 1.00000E-01-1.00000E-02
 -1       207 7.50000E-01 1.00000E-01 0.00000E+00
 -1       208 7.50000E-01 1.00000E-01 0.00000E+00
 -1       210 7.50000E-01 1.00000E-01 1.00000E-02
 -3
    3C                             4                                     1
 -1         5    4    0    2
 -2        25        34        43        52        27        36        45        54        61        70
 -2        79        88        26        35        44        53        63        72        81        90
 -1         6    4    0    2
 -2        28        37        46        55        30        39        48        57        64        73
 -2        82        91        29        38        47        56        66        75        84        93
 -1         7    4    0    2
 -2        52        43        97       106        54        45        99       108        79       115
 -2       124       133        53        44        98       107        81       117       126       135
 -1         8    4    0    2
 -2        55        46       100       109        57        48       102       111        82       118
 -2       127       136        56        47       101       110        84       120       129       138
 -1         9    4    0    2
 -2        34       142       151        43        36       144       153        45       160       169
 -2       178        70        35       143       152        44       162       171       180        72
 -1        10    4    0    2
 -2        37       145       154        46        39       147       156        48       163       172
 -2       181        73        38       146       155        47       165       174       183        75
 -1        11    4    0    2
 -2        43       151       187        97        45       153       189        99       178       196
 -2       205       115        44       152       188        98       180       198       207       117
 -1        12    4    0    2
 -2        46       154       190       100        48       156       192       102       181       199
 -2       208       118        47       155       191       101       183       201       210       120
 -3
    1PSTEP                         1           1           1          
  100CL  101 1.000000000         102                     0    1           1
 -4  DISP        4    1
 -5  D1          1    2    1    0
 -5  D2          1    2    2    0
 -5  D3          1    2    3    0
 -5  ALL         1    2    0    0    1ALL
 -1        25 0.00000E+00 0.00000E+00 4.61427E-06
 -1        26 8.47918E-08 1.29433E-07 5.02389E-06
 -1        27 1.13056E-07 1.72578E-07 3.62234E-06
 -1        28 1.13056E-07 1.72578E-07 3.62234E-06
 -1        29 8.47918E-08 1.29433E-07 4.09618E-07
 -1        30 0.00000E+00 0.00000E+00-4.61427E-06
 -1        34-5.22118E-04-6.44042E-06-1.80033E-02
 -1        35-2.08776E-04-2.52821E-06-1.80034E-02
 -1        36 1.04546E-04 1.41054E-06-1.80039E-02
 -1        37 1.04546E-04 1.41054E-06-1.80039E-02
 -1        38 4.17849E-04 5.37584E-06-1.80046E-02
 -1        39 7.31132E-04 9.36768E-06-1.80058E-02
 -1        43-5.19579E-04-6.73548E-13-1.80260E-02
 -1        44-2.07779E-04 2.71576E-13-1.80249E-02
 -1        45 1.04017E-04 1.22393E-12-1.80241E-02
 -1        46 1.04017E-04 1.22393E-12-1.80241E-02
 -1        47 4.15811E-04 2.18352E-12-1.80237E-02
 -1        48 7.27601E-04 3.15035E-12-1.80237E-02
 -1        52 0.00000E+00 0.00000E+00 2.14578E-06
 -1        53 1.24970E-07 4.10833E-14 3.76233E-06
 -1        54 1.66626E-07 5.47777E-14 3.58592E-06
 -1        55 1.66626E-07 5.47777E-14 3.58592E-06
 -1        56 1.24970E-07 4.10833E-14 1.61655E-06
 -1        57 0.00000E+00 0.00000E+00-2.14578E-06
 -1        61-3.19530E-04-1.30652E-05-5.08072E-03
 -1        63 6.40486E-05 2.55966E-06-5.07917E-03
 -1        64 6.40486E-05 2.55966E-06-5.07917E-03
 -1        66 4.47476E-04 1.80650E-05-5.08194E-03
 -1        70-5.20832E-04-3.18945E-06-1.80246E-02
 -1        72 1.04280E-04 6.99357E-07-1.80247E-02
 -1        73 1.04280E-04 6.99357E-07-1.80247E-02
 -1        75 7.29347E-04 4.64125E-06-1.80263E-02
 -1        79-3.20544E-04 1.16433E-11-5.11820E-03
 -1        81 6.42404E-05-1.93431E-12-5.11784E-03
 -1        82 6.42404E-05-1.93431E-12-5.11784E-03
 -1        84 4.48852E-04-1.55522E-11-5.12180E-03
 -1        88 0.00000E+00 0.00000E+00 6.23445E-07
 -1        90 1.39841E-07 8.62888E-08 3.60413E-06
 -1        91 1.39841E-07 8.62888E-08 3.60413E-06
 -1        93 0.00000E+00 0.00000E+00-6.23445E-07
 -1        97-5.22118E-04 6.44042E-06-1.80033E-02
 -1        98-2.08776E-04 2.52821E-06-1.80034E-02
 -1        99 1.04546E-04-1.41054E-06-1.80039E-02
 -1       100 1.04546E-04-1.41054E-06-1.80039E-02
 -1       101 4.17849E-04-5.37583E-06-1.80046E-02
 -1       102 7.31132E-04-9.36767E-06-1.80058E-02
 -1       106 0.00000E+00 0.00000E+00 4.61427E-06
 -1       107 8.47916E-08-1.29433E-07 5.02389E-06
 -1       108 1.13056E-07-1.72578E-07 3.62234E-06
 -1       109 1.13056E-07-1.72578E-07 3.62234E-06
 -1       110 8.47916E-08-1.29433E-07 4.09616E-07
 -1       111 0.00000E+00 0.00000E+00-4.61427E-06
 -1       115-5.20832E-04 3.18944E-06-1.80246E-02
 -1       117 1.04280E-04-6.99355E-07-1.80247E-02
 -1       118 1.04280E-04-6.99355E-07-1.80247E-02
 -1       120 7.29347E-04-4.64124E-06-1.80263E-02
 -1       124-3.19530E-04 1.30652E-05-5.08072E-03
 -1       126 6.40486E-05-2.55967E-06-5.07917E-03
 -1       127 6.40486E-05-2.55967E-06-5.07917E-03
 -1       129 4.47476E-04-1.80650E-05-5.08194E-03
 -1       133 0.00000E+00 0.00000E+00 6.23446E-07
 -1       135 1.39841E-07-8.62889E-08 3.60413E-06
 -1       136 1.39841E-07-8.62889E-08 3.60413E-06
 -1       138 0.00000E+00 0.00000E+00-6.23446E-07
 -1       142-6.17639E-04 8.94440E-06-5.36264E-02
 -1       143-2.46983E-04 3.65539E-06-5.36273E-02
 -1       144 1.23665E-04-1.64938E-06-5.36282E-02
 -1       145 1.23665E-04-1.64938E-06-5.36282E-02
 -1       146 4.94306E-04-6.96992E-06-5.36291E-02
 -1       147 8.64939E-04-1.23062E-05-5.36299E-02
 -1       151-6.13166E-04-2.81248E-12-5.36033E-02
 -1       152-2.45246E-04 1.81377E-13-5.36030E-02
 -1       153 1.22680E-04 3.17210E-12-5.36028E-02
 -1       154 1.22680E-04 3.17210E-12-5.36028E-02
 -1       155 4.90611E-04 6.15968E-12-5.36024E-02
 -1       156 8.58547E-04 9.14413E-12-5.36020E-02
 -1       160-6.04808E-04-6.64514E-06-3.50958E-02
 -1       162 1.21058E-04 1.26431E-06-3.50947E-02
 -1       163 1.21058E-04 1.26431E-06-3.50947E-02
 -1       165 8.46869E-04 9.19532E-06-3.50942E-02
 -1       169-6.15897E-04 4.46682E-06-5.36115E-02
 -1       171 1.23266E-04-8.24639E-07-5.36117E-02
 -1       172 1.23266E-04-8.24639E-07-5.36117E-02
 -1       174 8.62425E-04-6.14763E-06-5.36118E-02
 -1       178-6.05675E-04-6.68479E-12-3.51138E-02
 -1       180 1.21249E-04 3.09775E-12-3.51139E-02
 -1       181 1.21249E-04 3.09775E-12-3.51139E-02
 -1       183 8.48178E-04 1.28885E-11-3.51146E-02
 -1       187-6.17639E-04-8.94441E-06-5.36264E-02
 -1       188-2.46983E-04-3.65539E-06-5.36273E-02
 -1       189 1.23665E-04 1.64939E-06-5.36282E-02
 -1       190 1.23665E-04 1.64939E-06-5.36282E-02
 -1       191 4.94306E-04 6.96993E-06-5.36291E-02
 -1       192 8.64939E-04 1.23062E-05-5.36299E-02
 -1       196-6.15897E-04-4.46683E-06-5.36115E-02
 -1       198 1.23266E-04 8.24645E-07-5.36117E-02
 -1       199 1.23266E-04 8.24645E-07-5.36117E-02
 -1       201 8.62425E-04 6.14765E-06-5.36118E-02
 -1       205-6.04808E-04 6.64513E-06-3.50958E-02
 -1       207 1.21058E-04-1.26430E-06-3.50947E-02
 -1       208 1.21058E-04-1.26430E-06-3.50947E-02
 -1       210 8.46869E-04-9.19530E-06-3.50942E-02
 -3
    1PSTEP                         2           1           1          
  100CL  101 1.000000000         102                     0    1           1
 -4  STRESS      6    1
 -5  SXX         1    4    1    1
 -5  SYY         1    4    2    2
 -5  SZZ         1    4    3    3
 -5  SXY         1    4    1    2
 -5  SYZ         1    4    2    3
 -5  SZX         1    4    3    1
 -1        25-6.77480E+02-1.46771E+02 5.28146E+00-1.96976E+01 3.33974E+01 3.96905E+00
 -1        26-2.71460E+02-5.94459E+01 1.14834E+00-7.94978E+00 4.84561E+01 3.33127E+00
 -1        27 1.34561E+02 2.78790E+01-2.98479E+00 3.79801E+00 6.35147E+01 2.69349E+00
 -1        28 6.72721E+01 1.39388E+01-1.49246E+00 1.89905E+00 3.17575E+01 1.34679E+00
 -1        29 2.70743E+02 5.85950E+01-3.12285E+00 7.72286E+00 3.93456E+01 1.50009E+00
 -1        30 4.74213E+02 1.03251E+02-4.75325E+00 1.35467E+01 4.69338E+01 1.65339E+00
 -1        34-2.07217E+02 4.26927E+01-8.70394E-02 3.92585E+00-1.02755E+01-3.40425E+00
 -1        35-8.27868E+01 1.72816E+01 2.49951E-01 1.55689E+00-1.45228E+01-4.23025E+00
 -1        36 4.16432E+01-8.12950E+00 5.86942E-01-8.12062E-01-1.87701E+01-5.05625E+00
 -1        37 2.08159E+01-4.06546E+00 2.93472E-01-4.06018E-01-9.38507E+00-2.52810E+00
 -1        38 8.29301E+01-1.70592E+01 3.45266E-01-1.52671E+00-1.15621E+01-2.64186E+00
 -1        39 1.45044E+02-3.00529E+01 3.97060E-01-2.64740E+00-1.37391E+01-2.75562E+00
 -1        43-2.09593E+02 3.99855E+01 1.56524E-01-2.58424E-05 6.68092E-07-1.78179E+00
 -1        44-8.38608E+01 1.60292E+01-6.72027E-02-1.02795E-05 8.08232E-07-2.08462E+00
 -1        45 4.18712E+01-7.92702E+00-2.90930E-01 5.28330E-06 9.48372E-07-2.38744E+00
 -1        46 2.09300E+01-3.96421E+00-1.45468E-01 2.64173E-06 4.74210E-07-1.19370E+00
 -1        47 8.37175E+01-1.62210E+01-3.64497E-01 1.03029E-05 5.14324E-07-1.04294E+00
 -1        48 1.46505E+02-2.84778E+01-5.83526E-01 1.79640E-05 5.54438E-07-8.92192E-01
 -1        52-6.85311E+02-1.50331E+02 1.24399E+00 2.78392E-05-3.68998E-06-3.79088E+00
 -1        53-2.74038E+02-6.02509E+01 1.04295E+00 1.10276E-05-4.28773E-06-7.63314E+00
 -1        54 1.37235E+02 2.98294E+01 8.41900E-01-5.78409E-06-4.88549E-06-1.14754E+01
 -1        55 6.86095E+01 1.49140E+01 4.20913E-01-2.89218E-06-2.44273E-06-5.73768E+00
 -1        56 2.74755E+02 6.09687E+01 7.77402E-01-1.11550E-05-2.56788E-06-7.19784E+00
 -1        57 4.80900E+02 1.07023E+02 1.13389E+00-1.94178E-05-2.69303E-06-8.65800E+00
 -1        61-4.55618E+02-5.47070E+01-2.11566E+00-2.79226E+00 1.42541E+01-1.98469E-01
 -1        63 9.08169E+01 1.04692E+01-1.37972E-01 5.37427E-01 2.50565E+01-3.26879E+00
 -1        64 4.53992E+01 5.23348E+00-6.90189E-02 2.68680E-01 1.25283E+01-1.63436E+00
 -1        66 3.18990E+02 3.85332E+01 1.24538E+00 1.97229E+00 1.79350E+01-2.22514E+00
 -1        70-2.08405E+02 4.13391E+01 3.47426E-02 2.36503E+00-8.93953E-01-2.59302E+00
 -1        72 4.17572E+01-8.02826E+00 1.48006E-01-5.14420E-01-7.16973E-03-3.72185E+00
 -1        73 2.08730E+01-4.01484E+00 7.40020E-02-2.57189E-01-3.57467E-03-1.86090E+00
 -1        75 1.45775E+02-2.92654E+01-9.32333E-02-1.58073E+00 3.33062E-01-1.82391E+00
 -1        79-4.53096E+02-5.46112E+01-8.72593E-01-2.68730E-06-2.44145E-07-1.68348E+00
 -1        81 9.06030E+01 1.07936E+01 4.94817E-01 5.35368E-07-7.00016E-07-5.10108E+00
 -1        82 4.52923E+01 5.39567E+00 2.47373E-01 2.67675E-07-3.50008E-07-2.55050E+00
 -1        84 3.17613E+02 3.88514E+01 1.29831E+00 1.90904E-06-4.34174E-07-3.33737E+00
 -1        88-6.81396E+02-1.48551E+02 3.26273E+00-1.22899E+01 3.70137E+00 8.90829E-02
 -1        90 1.35898E+02 2.88542E+01-1.07144E+00 2.46169E+00 9.83567E-01-4.39095E+00
 -1        91 6.79408E+01 1.44264E+01-5.35775E-01 1.23085E+00 4.91793E-01-2.19544E+00
 -1        93 4.77557E+02 1.05137E+02-1.80968E+00 8.47002E+00-7.49440E-01-3.50231E+00
 -1        97-2.07217E+02 4.26926E+01-8.70400E-02-3.92589E+00 1.02755E+01-3.40426E+00
 -1        98-8.27868E+01 1.72816E+01 2.49951E-01-1.55691E+00 1.45228E+01-4.23026E+00
 -1        99 4.16432E+01-8.12949E+00 5.86942E-01 8.12069E-01 1.87701E+01-5.05627E+00
 -1       100 2.08159E+01-4.06546E+00 2.93473E-01 4.06022E-01 9.38507E+00-2.52811E+00
 -1       101 8.29301E+01-1.70592E+01 3.45266E-01 1.52672E+00 1.15621E+01-2.64187E+00
 -1       102 1.45044E+02-3.00529E+01 3.97060E-01 2.64743E+00 1.37391E+01-2.75563E+00
 -1       106-6.77480E+02-1.46771E+02 5.28148E+00 1.96976E+01-3.33974E+01 3.96907E+00
 -1       107-2.71460E+02-5.94459E+01 1.14834E+00 7.94981E+00-4.84561E+01 3.33129E+00
 -1       108 1.34561E+02 2.78790E+01-2.98479E+00-3.79802E+00-6.35147E+01 2.69352E+00
 -1       109 6.72721E+01 1.39388E+01-1.49247E+00-1.89905E+00-3.17575E+01 1.34681E+00
 -1       110 2.70743E+02 5.85950E+01-3.12286E+00-7.72288E+00-3.93456E+01 1.50011E+00
 -1       111 4.74213E+02 1.03251E+02-4.75326E+00-1.35467E+01-4.69338E+01 1.65341E+00
 -1       115-2.08405E+02 4.13391E+01 3.47419E-02-2.36508E+00 8.93954E-01-2.59302E+00
 -1       117 4.17572E+01-8.02826E+00 1.48007E-01 5.14429E-01 7.17115E-03-3.72185E+00
 -1       118 2.08730E+01-4.01484E+00 7.40022E-02 2.57194E-01 3.57538E-03-1.86090E+00
 -1       120 1.45775E+02-2.92654E+01-9.32330E-02 1.58076E+00-3.33061E-01-1.82391E+00
 -1       124-4.55618E+02-5.47070E+01-2.11567E+00 2.79226E+00-1.42541E+01-1.98471E-01
 -1       126 9.08169E+01 1.04692E+01-1.37970E-01-5.37428E-01-2.50565E+01-3.26880E+00
 -1       127 4.53992E+01 5.23348E+00-6.90183E-02-2.68681E-01-1.25283E+01-1.63436E+00
 -1       129 3.18990E+02 3.85332E+01 1.24539E+00-1.97229E+00-1.79350E+01-2.22515E+00
 -1       133-6.81396E+02-1.48551E+02 3.26274E+00 1.22899E+01-3.70137E+00 8.90906E-02
 -1       135 1.35898E+02 2.88542E+01-1.07145E+00-2.46170E+00-9.83572E-01-4.39094E+00
 -1       136 6.79408E+01 1.44264E+01-5.35777E-01-1.23086E+00-4.91796E-01-2.19544E+00
 -1       138 4.77557E+02 1.05137E+02-1.80968E+00-8.47006E+00 7.49437E-01-3.50230E+00
 -1       142 2.82715E+01-2.40131E+01-4.53563E+00 1.37932E+01 7.84572E+00-2.88423E+00
 -1       143 1.13302E+01-9.69269E+00-1.85401E+00 5.53826E+00 9.86651E+00-4.69725E+00
 -1       144-5.61107E+00 4.62770E+00 8.27607E-01-2.71670E+00 1.18873E+01-6.51026E+00
 -1       145-2.80750E+00 2.31424E+00 4.13864E-01-1.35830E+00 5.94367E+00-3.25514E+00
 -1       146-1.11881E+01 9.65850E+00 1.83690E+00-5.45883E+00 7.07138E+00-4.03535E+00
 -1       147-1.95688E+01 1.70028E+01 3.25993E+00-9.55936E+00 8.19909E+00-4.81556E+00
 -1       151 4.76360E+01-1.69220E+01-1.46736E+00 1.31735E-05 8.51434E-07 4.21082E+00
 -1       152 1.89640E+01-6.82386E+00-5.21452E-01 5.23306E-06 8.40332E-07 5.12008E+00
 -1       153-9.70790E+00 3.27432E+00 4.24456E-01-2.70739E-06 8.29231E-07 6.02935E+00
 -1       154-4.85602E+00 1.63751E+00 2.12273E-01-1.35379E-06 4.14607E-07 3.01469E+00
 -1       155-1.91061E+01 6.86891E+00 7.65684E-01-5.17693E-06 3.60315E-07 3.61268E+00
 -1       156-3.33562E+01 1.21003E+01 1.31909E+00-9.00007E-06 3.06023E-07 4.21068E+00
 -1       160-7.62029E+01 1.20077E+01 2.40154E+00 3.76593E+00-3.90800E+00-2.66337E+00
 -1       162 1.53011E+01-2.34533E+00-3.53677E-01-8.08834E-01-6.12558E+00-3.69584E+00
 -1       163 7.64904E+00-1.17243E+00-1.76809E-01-4.04327E-01-3.06280E+00-1.84792E+00
 -1       165 5.33760E+01-8.45919E+00-1.59498E+00-2.62603E+00-4.10766E+00-2.11156E+00
 -1       169 3.79537E+01-2.04676E+01-3.00150E+00 1.25998E+01 1.54988E-02 6.63296E-01
 -1       171-7.65948E+00 3.95101E+00 6.26031E-01-2.53782E+00-6.33616E-01-2.40457E-01
 -1       172-3.83176E+00 1.97587E+00 3.13069E-01-1.26885E+00-3.16814E-01-1.20224E-01
 -1       174-2.64625E+01 1.45515E+01 2.28951E+00-8.77011E+00-4.06743E-01-3.02443E-01
 -1       178-7.53340E+01 1.09701E+01 9.17435E-01-2.64874E-06-5.07037E-07 1.11658E-01
 -1       180 1.50320E+01-2.16873E+00-1.52569E-01 5.02194E-07-3.79739E-07-9.39183E-03
 -1       181 7.51445E+00-1.08413E+00-7.62482E-02 2.51075E-07-1.89847E-07-4.68905E-03
 -1       183 5.26642E+01-7.76729E+00-6.55348E-01 1.84608E-06-2.04892E-07 2.21513E-01
 -1       187 2.82714E+01-2.40131E+01-4.53565E+00-1.37932E+01-7.84572E+00-2.88423E+00
 -1       188 1.13302E+01-9.69269E+00-1.85402E+00-5.53825E+00-9.86651E+00-4.69724E+00
 -1       189-5.61105E+00 4.62770E+00 8.27610E-01 2.71670E+00-1.18873E+01-6.51026E+00
 -1       190-2.80750E+00 2.31424E+00 4.13866E-01 1.35830E+00-5.94367E+00-3.25514E+00
 -1       191-1.11881E+01 9.65850E+00 1.83690E+00 5.45883E+00-7.07138E+00-4.03535E+00
 -1       192-1.95687E+01 1.70028E+01 3.25994E+00 9.55935E+00-8.19909E+00-4.81556E+00
 -1       196 3.79537E+01-2.04676E+01-3.00150E+00-1.25998E+01-1.54991E-02 6.63295E-01
 -1       198-7.65948E+00 3.95101E+00 6.26032E-01 2.53781E+00 6.33616E-01-2.40458E-01
 -1       199-3.83176E+00 1.97587E+00 3.13070E-01 1.26885E+00 3.16813E-01-1.20225E-01
 -1       201-2.64625E+01 1.45515E+01 2.28952E+00 8.77010E+00 4.06742E-01-3.02443E-01
 -1       205-7.62029E+01 1.20077E+01 2.40155E+00-3.76593E+00 3.90800E+00-2.66337E+00
 -1       207 1.53011E+01-2.34533E+00-3.53679E-01 8.08834E-01 6.12558E+00-3.69584E+00
 -1       208 7.64904E+00-1.17243E+00-1.76809E-01 4.04327E-01 3.06280E+00-1.84792E+00
 -1       210 5.33760E+01-8.45919E+00-1.59499E+00 2.62603E+00 4.10766E+00-2.11156E+00
 -3
 9999
