    1C
    1UUSER                                                              
    1UDATE              04.march.2015                                   
    1UTIME              20:07:34                                        
    1UHOST                                                              
    1UPGM               CalculiX                                        
    1UDIR                                                               
    1UDBN                                                               
    1UMAT    1EL                                                        
    2C                            51                                     1
 -1        22-7.45058E-09-7.45058E-09-5.00000E-03
 -1        23-7.45058E-09-7.45058E-09 0.00000E+00
 -1        24-7.45058E-09-7.45058E-09 5.00000E-03
 -1        25 5.00000E-01-7.45058E-09-1.50000E-02
 -1        26 5.00000E-01-7.45058E-09 0.00000E+00
 -1        27 5.00000E-01-7.45058E-09 1.50000E-02
 -1        28 5.00000E-01 5.00000E-01-1.50000E-02
 -1        29 5.00000E-01 5.00000E-01 0.00000E+00
 -1        30 5.00000E-01 5.00000E-01 1.50000E-02
 -1        31-7.45058E-09 5.00000E-01-5.00000E-03
 -1        32-7.45058E-09 5.00000E-01 0.00000E+00
 -1        33-7.45058E-09 5.00000E-01 5.00000E-03
 -1        34 2.50000E-01-7.45058E-09-1.00000E-02
 -1        36 2.50000E-01-7.45058E-09 1.00000E-02
 -1        37 5.00000E-01 2.50000E-01-1.50000E-02
 -1        39 5.00000E-01 2.50000E-01 1.50000E-02
 -1        40 2.50000E-01 5.00000E-01-1.00000E-02
 -1        42 2.50000E-01 5.00000E-01 1.00000E-02
 -1        43-7.45058E-09 2.50000E-01-5.00000E-03
 -1        45-7.45058E-09 2.50000E-01 5.00000E-03
 -1        46 5.00000E-01 1.00000E+00-1.50000E-02
 -1        47 5.00000E-01 1.00000E+00 0.00000E+00
 -1        48 5.00000E-01 1.00000E+00 1.50000E-02
 -1        49-7.45058E-09 1.00000E+00-5.00000E-03
 -1        50-7.45058E-09 1.00000E+00 0.00000E+00
 -1        51-7.45058E-09 1.00000E+00 5.00000E-03
 -1        52 5.00000E-01 7.50000E-01-1.50000E-02
 -1        54 5.00000E-01 7.50000E-01 1.50000E-02
 -1        55 2.50000E-01 1.00000E+00-1.00000E-02
 -1        57 2.50000E-01 1.00000E+00 1.00000E-02
 -1        58-7.45058E-09 7.50000E-01-5.00000E-03
 -1        60-7.45058E-09 7.50000E-01 5.00000E-03
 -1        61 1.00000E+00-7.45058E-09-1.00000E-02
 -1        62 1.00000E+00-7.45058E-09 0.00000E+00
 -1        63 1.00000E+00-7.45058E-09 1.00000E-02
 -1        64 1.00000E+00 5.00000E-01-1.00000E-02
 -1        65 1.00000E+00 5.00000E-01 0.00000E+00
 -1        66 1.00000E+00 5.00000E-01 1.00000E-02
 -1        67 7.50000E-01-7.45058E-09-1.25000E-02
 -1        69 7.50000E-01-7.45058E-09 1.25000E-02
 -1        70 1.00000E+00 2.50000E-01-1.00000E-02
 -1        72 1.00000E+00 2.50000E-01 1.00000E-02
 -1        73 7.50000E-01 5.00000E-01-1.25000E-02
 -1        75 7.50000E-01 5.00000E-01 1.25000E-02
 -1        76 1.00000E+00 1.00000E+00-1.00000E-02
 -1        77 1.00000E+00 1.00000E+00 0.00000E+00
 -1        78 1.00000E+00 1.00000E+00 1.00000E-02
 -1        79 1.00000E+00 7.50000E-01-1.00000E-02
 -1        81 1.00000E+00 7.50000E-01 1.00000E-02
 -1        82 7.50000E-01 1.00000E+00-1.25000E-02
 -1        84 7.50000E-01 1.00000E+00 1.25000E-02
 -3
    3C                             4                                     1
 -1         1    4    0    1
 -2        22        25        28        31        24        27        30        33        34        37
 -2        40        43        23        26        29        32        36        39        42        45
 -1         2    4    0    1
 -2        31        28        46        49        33        30        48        51        40        52
 -2        55        58        32        29        47        50        42        54        57        60
 -1         3    4    0    1
 -2        25        61        64        28        27        63        66        30        67        70
 -2        73        37        26        62        65        29        69        72        75        39
 -1         4    4    0    1
 -2        28        64        76        46        30        66        78        48        73        79
 -2        82        52        29        65        77        47        75        81        84        54
 -3
    1PSTEP                         1           1           1          
  100CL  101 1.000000000          51                     0    1           1
 -4  DISP        4    1
 -5  D1          1    2    1    0
 -5  D2          1    2    2    0
 -5  D3          1    2    3    0
 -5  ALL         1    2    0    0    1ALL
 -1        22 6.45240E-08 1.38480E-07-1.24401E-05
 -1        23-1.61278E-07-2.97384E-07 1.69723E-06
 -1        24 1.93577E-07 3.66640E-07 1.24401E-05
 -1        25-1.02355E-04-4.14825E-04-1.54140E-02
 -1        26 4.33502E-04-5.46604E-04-1.54165E-02
 -1        27 9.68754E-04-6.78983E-04-1.54153E-02
 -1        28 1.36274E-04 3.82832E-12-1.32842E-02
 -1        29 6.17575E-04 2.77160E-12-1.32718E-02
 -1        30 1.10063E-03 1.71698E-12-1.32560E-02
 -1        31-1.29452E-07-1.29754E-16-1.87640E-05
 -1        32 2.75337E-07 3.06099E-16 1.35908E-06
 -1        33-3.39971E-07-3.71221E-16 1.87640E-05
 -1        34-7.54408E-05-3.78116E-04-6.19983E-03
 -1        36 6.07385E-04-4.65539E-04-6.17964E-03
 -1        37 8.23676E-05-1.93746E-04-1.38090E-02
 -1        39 1.12463E-03-3.17158E-04-1.37898E-02
 -1        40 1.24033E-04 3.05557E-12-5.19349E-03
 -1        42 7.02964E-04 2.36529E-12-5.17911E-03
 -1        43 0.00000E+00 0.00000E+00-6.48268E-06
 -1        45 0.00000E+00 0.00000E+00 6.48268E-06
 -1        46-1.02355E-04 4.14825E-04-1.54140E-02
 -1        47 4.33502E-04 5.46604E-04-1.54165E-02
 -1        48 9.68754E-04 6.78983E-04-1.54153E-02
 -1        49 6.45240E-08-1.38480E-07-1.24401E-05
 -1        50-1.61278E-07 2.97384E-07 1.69723E-06
 -1        51 1.93577E-07-3.66640E-07 1.24401E-05
 -1        52 8.23676E-05 1.93746E-04-1.38090E-02
 -1        54 1.12463E-03 3.17158E-04-1.37898E-02
 -1        55-7.54408E-05 3.78116E-04-6.19983E-03
 -1        57 6.07385E-04 4.65539E-04-6.17964E-03
 -1        58 0.00000E+00 0.00000E+00-6.48268E-06
 -1        60 0.00000E+00 0.00000E+00 6.48268E-06
 -1        61 4.01899E-04-4.94476E-04-3.38629E-02
 -1        62 7.81022E-04-6.16681E-04-3.38624E-02
 -1        63 1.16252E-03-7.38535E-04-3.38598E-02
 -1        64 9.94906E-04 2.47726E-12-2.93063E-02
 -1        65 1.29105E-03 1.04877E-12-2.92956E-02
 -1        66 1.58269E-03-3.79671E-13-2.92847E-02
 -1        67 1.93514E-04-4.45555E-04-2.45447E-02
 -1        69 1.09266E-03-6.99795E-04-2.45279E-02
 -1        70 6.05839E-04-2.18171E-04-3.08404E-02
 -1        72 1.28344E-03-4.31441E-04-3.08319E-02
 -1        73 5.16969E-04 3.51677E-12-2.14690E-02
 -1        75 1.31031E-03 8.69922E-13-2.14614E-02
 -1        76 4.01899E-04 4.94476E-04-3.38629E-02
 -1        77 7.81022E-04 6.16681E-04-3.38624E-02
 -1        78 1.16252E-03 7.38535E-04-3.38598E-02
 -1        79 6.05839E-04 2.18171E-04-3.08404E-02
 -1        81 1.28344E-03 4.31441E-04-3.08319E-02
 -1        82 1.93514E-04 4.45555E-04-2.45447E-02
 -1        84 1.09266E-03 6.99795E-04-2.45279E-02
 -3
    1PSTEP                         2           1           1          
  100CL  101 1.000000000          51                     0    1           1
 -4  NDTEMP      1    1
 -5  T           1    1    0    0
 -1        22 3.68000E+02
 -1        23 3.73000E+02
 -1        24 3.78000E+02
 -1        25 3.58000E+02
 -1        26 3.73000E+02
 -1        27 3.88000E+02
 -1        28 3.58000E+02
 -1        29 3.73000E+02
 -1        30 3.88000E+02
 -1        31 3.68000E+02
 -1        32 3.73000E+02
 -1        33 3.78000E+02
 -1        34 3.63000E+02
 -1        36 3.83000E+02
 -1        37 3.58000E+02
 -1        39 3.88000E+02
 -1        40 3.63000E+02
 -1        42 3.83000E+02
 -1        43 3.68000E+02
 -1        45 3.78000E+02
 -1        46 3.58000E+02
 -1        47 3.73000E+02
 -1        48 3.88000E+02
 -1        49 3.68000E+02
 -1        50 3.73000E+02
 -1        51 3.78000E+02
 -1        52 3.58000E+02
 -1        54 3.88000E+02
 -1        55 3.63000E+02
 -1        57 3.83000E+02
 -1        58 3.68000E+02
 -1        60 3.78000E+02
 -1        61 3.63000E+02
 -1        62 3.73000E+02
 -1        63 3.83000E+02
 -1        64 3.63000E+02
 -1        65 3.73000E+02
 -1        66 3.83000E+02
 -1        67 3.60500E+02
 -1        69 3.85500E+02
 -1        70 3.63000E+02
 -1        72 3.83000E+02
 -1        73 3.60500E+02
 -1        75 3.85500E+02
 -1        76 3.63000E+02
 -1        77 3.73000E+02
 -1        78 3.83000E+02
 -1        79 3.63000E+02
 -1        81 3.83000E+02
 -1        82 3.60500E+02
 -1        84 3.85500E+02
 -3
    1PSTEP                         3           1           1          
  100CL  101 1.000000000          51                     0    1           1
 -4  STRESS      6    1
 -5  SXX         1    4    1    1
 -5  SYY         1    4    2    2
 -5  SZZ         1    4    3    3
 -5  SXY         1    4    1    2
 -5  SYZ         1    4    2    3
 -5  SZX         1    4    3    1
 -1        22-2.92198E+02-2.80666E+02-4.16623E+00-1.63803E+02-2.20880E+00-5.38075E+00
 -1        23-5.62192E+00-2.12328E+02 2.61300E-01-1.73354E+02 3.62070E+00-3.13368E+00
 -1        24 2.80954E+02-1.43990E+02 4.68883E+00-1.82904E+02 9.45019E+00-8.86608E-01
 -1        25 1.36878E+02 5.18610E+01 3.22178E-01 7.16043E+01-1.86629E-03-6.15562E-01
 -1        26 5.83272E+01 5.02446E+01 3.03134E-01 5.44825E+01-1.08760E+00-3.09567E+00
 -1        27-2.02240E+01 4.86282E+01 2.84091E-01 3.73607E+01-2.17333E+00-5.57578E+00
 -1        28 5.60076E+01-2.46763E+01 2.72758E-01-1.80505E-08 7.15344E-09-1.23083E+01
 -1        29 1.07706E+00-3.39571E+01-1.72195E-01-3.04156E-07 2.84461E-08-2.23934E-02
 -1        30-5.38535E+01-4.32380E+01-6.17149E-01-5.90262E-07 4.97387E-08 1.22635E+01
 -1        31-6.27716E+01-2.10472E+02-3.12128E+00 1.63958E-06-3.53765E-08 1.38142E+01
 -1        32 1.68669E+02-1.59198E+02-5.73302E-01 1.58576E-06-5.40271E-08-5.06247E+00
 -1        33 4.00109E+02-1.07923E+02 1.97468E+00 1.53194E-06-7.26776E-08-2.39391E+01
 -1        34-5.24433E+01-9.30211E+01 2.18897E+00-3.46432E+01-1.74253E+00-1.13583E+00
 -1        36 1.14788E+02-4.42720E+01-2.02916E+00-6.90114E+01 2.58825E+00-5.57097E+00
 -1        37 9.64431E+01 1.35924E+01 2.97468E-01 3.49222E+01 4.52771E-01-6.46191E+00
 -1        39-3.70388E+01 2.69508E+00-1.66529E-01-1.69201E+00-1.67483E+00 3.34384E+00
 -1        40 2.79581E-01-1.03015E+02 1.28254E+00 8.34074E-07-9.02463E-09-1.72010E+00
 -1        42 1.54686E+02-7.20147E+01-8.38102E-01 4.78534E-07-6.64456E-09-2.46723E+00
 -1        43-1.77485E+02-2.45569E+02-3.64375E+00-7.68352E+01-5.71146E+00 4.21671E+00
 -1        45 3.40532E+02-1.25956E+02 3.33175E+00-8.87160E+01 5.56197E+00-1.24129E+01
 -1        46 1.36878E+02 5.18610E+01 3.22178E-01-7.16043E+01 1.86616E-03-6.15562E-01
 -1        47 5.83272E+01 5.02446E+01 3.03134E-01-5.44825E+01 1.08760E+00-3.09567E+00
 -1        48-2.02240E+01 4.86282E+01 2.84091E-01-3.73607E+01 2.17333E+00-5.57578E+00
 -1        49-2.92198E+02-2.80666E+02-4.16623E+00 1.63803E+02 2.20880E+00-5.38075E+00
 -1        50-5.62192E+00-2.12328E+02 2.61300E-01 1.73354E+02-3.62070E+00-3.13368E+00
 -1        51 2.80954E+02-1.43990E+02 4.68883E+00 1.82904E+02-9.45019E+00-8.86606E-01
 -1        52 9.64431E+01 1.35924E+01 2.97468E-01-3.49222E+01-4.52771E-01-6.46191E+00
 -1        54-3.70388E+01 2.69508E+00-1.66529E-01 1.69200E+00 1.67483E+00 3.34384E+00
 -1        55-5.24433E+01-9.30211E+01 2.18897E+00 3.46432E+01 1.74253E+00-1.13583E+00
 -1        57 1.14788E+02-4.42720E+01-2.02916E+00 6.90114E+01-2.58825E+00-5.57097E+00
 -1        58-1.77485E+02-2.45569E+02-3.64375E+00 7.68352E+01 5.71146E+00 4.21671E+00
 -1        60 3.40532E+02-1.25956E+02 3.33175E+00 8.87160E+01-5.56197E+00-1.24129E+01
 -1        61-5.61852E+01 3.13553E+01 4.35496E+00-2.20126E+01-1.13259E+00-1.03932E+01
 -1        62-7.39026E+01-2.60099E+01-4.80650E-01-4.86724E+01 7.90534E-03 2.17543E+00
 -1        63-9.16200E+01-8.33751E+01-5.31626E+00-7.53322E+01 1.14840E+00 1.47441E+01
 -1        64 2.04783E+02-1.00162E+01 2.28164E+00 3.41329E-07 2.29005E-09 2.50085E+01
 -1        65 1.71105E+02 8.23083E+01 1.13560E+00 7.53535E-09 1.80309E-08-2.42034E+00
 -1        66 1.37426E+02 1.74633E+02-1.04481E-02-3.26258E-07 3.37718E-08-2.98492E+01
 -1        67 1.51304E+01 2.02268E+01-1.77242E+00 1.33399E+01 6.99639E-02-7.36672E+00
 -1        69-4.03447E+01-2.07822E+01 1.99954E+00-2.27462E+01 5.37720E-01 6.92393E+00
 -1        70 7.42990E+01 1.06695E+01 3.31830E+00 6.10278E+01 3.80434E-01 7.30765E+00
 -1        72 2.29031E+01 4.56289E+01-2.66335E+00 1.36899E+01 2.92071E+00-7.55256E+00
 -1        73 1.26734E+02-3.19053E+01-1.42960E+00 1.38328E-07-3.65171E-10 8.82319E+00
 -1        75 6.02286E+01 6.21315E+01 1.20307E+00-4.65955E-07 3.69304E-08-1.21635E+01
 -1        76-5.61852E+01 3.13553E+01 4.35496E+00 2.20126E+01 1.13259E+00-1.03932E+01
 -1        77-7.39026E+01-2.60099E+01-4.80650E-01 4.86724E+01-7.90529E-03 2.17543E+00
 -1        78-9.16200E+01-8.33751E+01-5.31626E+00 7.53322E+01-1.14840E+00 1.47441E+01
 -1        79 7.42990E+01 1.06695E+01 3.31830E+00-6.10278E+01-3.80434E-01 7.30765E+00
 -1        81 2.29031E+01 4.56289E+01-2.66335E+00-1.36899E+01-2.92071E+00-7.55256E+00
 -1        82 1.51304E+01 2.02268E+01-1.77242E+00-1.33399E+01-6.99640E-02-7.36672E+00
 -1        84-4.03447E+01-2.07822E+01 1.99954E+00 2.27462E+01-5.37720E-01 6.92393E+00
 -3
    1PSTEP                         4           1           1          
  100CL  101 1.000000000          51                     0    1           1
 -4  FORC        4    1
 -5  F1          1    2    1    0
 -5  F2          1    2    2    0
 -5  F3          1    2    3    0
 -5  ALL         1    2    0    0    1ALL
 -1        22 1.78566E-01 2.53011E-01 1.07202E-03
 -1        23-2.41289E-07-7.92988E-08-7.33179E-08
 -1        24 2.38783E-02 2.10095E-01 1.07746E-03
 -1        25 4.87010E-05-1.17398E-05 2.09113E-03
 -1        26-3.31759E-07-4.50024E-07-9.62981E-08
 -1        27 1.01530E-06-1.35384E-07-3.40326E-06
 -1        28 1.00970E-04-1.07408E-12 4.18339E-03
 -1        29-6.17411E-07 4.17663E-14-1.88333E-07
 -1        30 2.19867E-06 3.17619E-13-7.58667E-06
 -1        31-3.96396E-02-6.33430E-10 2.58582E-03
 -1        32-4.47278E-07 8.29933E-14-1.42683E-07
 -1        33-2.73321E-01-1.01185E-09 2.58014E-03
 -1        34 8.39131E-07-1.49586E-07-5.43849E-06
 -1        36-1.49692E-06-1.22186E-07 5.27510E-06
 -1        37-1.98829E-04 4.59454E-05-8.36741E-03
 -1        39-4.29338E-06 4.53210E-07 1.70811E-05
 -1        40 1.55434E-06 1.14730E-13-1.01684E-05
 -1        42-2.72912E-06 3.31219E-14 9.87512E-06
 -1        43 7.80263E-03 8.18443E-02 1.01608E-02
 -1        45-5.53161E-01 4.70573E-02 1.01677E-02
 -1        46 4.87010E-05 1.17398E-05 2.09113E-03
 -1        47-3.31760E-07 4.50024E-07-9.62934E-08
 -1        48 1.01529E-06 1.35385E-07-3.40326E-06
 -1        49 1.78566E-01-2.53011E-01 1.07202E-03
 -1        50-2.41289E-07 7.92988E-08-7.33134E-08
 -1        51 2.38783E-02-2.10095E-01 1.07746E-03
 -1        52-1.98829E-04-4.59454E-05-8.36741E-03
 -1        54-4.29338E-06-4.53211E-07 1.70811E-05
 -1        55 8.39132E-07 1.49586E-07-5.43848E-06
 -1        57-1.49692E-06 1.22186E-07 5.27509E-06
 -1        58 7.80264E-03-8.18443E-02 1.01608E-02
 -1        60-5.53161E-01-4.70573E-02 1.01677E-02
 -1        61 4.76606E-05-7.39730E-06 2.09002E-03
 -1        62 4.59615E-07-3.08149E-07 8.77433E-08
 -1        63 4.55020E-07-1.60384E-08-2.11059E-06
 -1        64-4.99895E-01-5.18860E-13 4.18039E-03
 -1        65 2.00000E+00 4.07271E-14 9.47206E-08
 -1        66-4.99999E-01 4.86633E-13-6.01453E-06
 -1        67-2.05560E-04 6.63630E-05-8.36165E-03
 -1        69-2.72546E-06 2.66529E-07 1.17259E-05
 -1        70-1.97614E-04 5.91766E-05-8.36183E-03
 -1        72-2.14584E-06 6.53849E-07 1.13203E-05
 -1        73-3.85141E-04 2.37582E-12-1.67214E-02
 -1        75-4.49609E-06-3.16969E-13 1.94666E-05
 -1        76 4.76606E-05 7.39730E-06 2.09002E-03
 -1        77 4.59615E-07 3.08149E-07 8.77702E-08
 -1        78 4.55020E-07 1.60388E-08-2.11059E-06
 -1        79-1.97614E-04-5.91766E-05-8.36183E-03
 -1        81-2.14584E-06-6.53851E-07 1.13203E-05
 -1        82-2.05560E-04-6.63630E-05-8.36165E-03
 -1        84-2.72546E-06-2.66529E-07 1.17260E-05
 -3
 9999
