    1C
    1UUSER                                                              
    1UDATE              04.march.2015                                   
    1UTIME              20:07:34                                        
    1UHOST                                                              
    1UPGM               CalculiX                                        
    1UDIR                                                               
    1UDBN                                                               
    1UMAT    1ALUM                                                      
    2C                             3                                     1
 -1         1 0.00000E+00 0.00000E+00 0.00000E+00
 -1         2 0.00000E+00 0.00000E+00 5.00000E+00
 -1         3 0.00000E+00 0.00000E+00 1.00000E+01
 -3
    3C                             1                                     1
 -1         1   12    0    1
 -2         1         3         2
 -3
    1PSTEP                         1           1           1          
  100CL  101 1.000000000           3                     0    1           1
 -4  DISP        4    1
 -5  D1          1    2    1    0
 -5  D2          1    2    2    0
 -5  D3          1    2    3    0
 -5  ALL         1    2    0    0    1ALL
 -1         1 1.03105E-01-2.74606E-10 4.83025E-14
 -1         2 3.23524E-02-8.60958E-11 2.39685E-14
 -1         3 0.00000E+00 0.00000E+00 0.00000E+00
 -3
    1PSTEP                         2           1           1          
  100CL  101 1.000000000           3                     0    1           1
 -4  STRESS      6    1
 -5  SXX         1    4    1    1
 -5  SYY         1    4    2    2
 -5  SZZ         1    4    3    3
 -5  SXY         1    4    1    2
 -5  SYZ         1    4    2    3
 -5  SZX         1    4    3    1
 -1         1-9.99960E-01 2.72178E-09 1.39543E-10-1.15829E-09 1.28193E-10 3.53722E-05
 -1         2-9.99960E-01 2.63891E-09 5.36138E-11-1.01355E-09 1.33330E-08 4.99997E+00
 -1         3-9.99960E-01 2.55603E-09-3.23155E-11-8.68811E-10 2.65377E-08 9.99990E+00
 -3
 9999
