
 displacements (vx,vy,vz) for set NALL and time  0.1000000E+01

         1  9.313507E-01  8.404894E-11  6.045152E-16
         2  8.619702E-01  8.093772E-11  1.151724E-15
         3  7.929342E-01  7.772110E-11  1.556927E-15
         4  7.245840E-01  7.426664E-11  1.676610E-15
         5  6.572633E-01  7.054286E-11  1.715801E-15
         6  5.913132E-01  6.653191E-11  1.028474E-15
         7  5.270788E-01  6.217084E-11  8.267762E-16
         8  4.649009E-01  5.738505E-11  6.760001E-16
         9  4.051249E-01  5.219178E-11  9.947252E-16
        10  3.480908E-01  4.664461E-11  6.967083E-16
        11  2.941446E-01  4.087894E-11  7.449553E-16
        12  2.436263E-01  3.503375E-11  5.594483E-16
        13  1.968826E-01  2.922367E-11  2.750546E-16
        14  1.542505E-01  2.356051E-11  2.846672E-16
        15  1.160780E-01  1.819292E-11  1.669478E-16
        16  8.270749E-02  1.327196E-11  1.094502E-16
        17  5.449104E-02  8.937197E-12  1.314595E-16
        18  3.174184E-02  5.315634E-12  1.143649E-16
        19  1.480054E-02  2.528596E-12  3.320030E-17
        20  4.079404E-03  7.108761E-13  2.193507E-17
        21  6.776264E-21  0.000000E+00  0.000000E+00
