
 displacements (vx,vy,vz) for set NALL and time  0.1000000E+01

         1  3.339343E-17  4.467168E-16  7.793888E-16
         2 -2.440539E-16  1.999467E-16 -4.993044E-16
         3 -6.481224E-18 -1.128126E-16 -4.497554E-16
         4  5.710543E-17 -1.184867E-16 -1.173129E-16
         5 -9.410682E-17  1.715767E-16 -1.388352E-17
         6 -1.988424E-16  1.800814E-16 -2.044900E-16
         7  1.454934E-18 -4.545466E-17 -1.664423E-16
         8  2.910055E-17 -3.095490E-17  2.909772E-17
         9 -9.649399E-17  2.307957E-16 -1.894395E-16
        10 -1.266054E-16 -2.757722E-17 -4.684488E-16
        11  1.992340E-17 -1.321684E-16 -2.003310E-16
        12  4.905848E-17 -7.154674E-17  2.727900E-16
        13  6.618606E-17  3.391456E-16  2.107410E-16
        14 -3.099464E-16  2.686568E-16 -3.007576E-16
        15 -4.574401E-19 -7.498438E-17 -3.133472E-16
        16  3.892409E-17 -8.824773E-17 -1.742152E-17
        17 -9.019289E-17  1.846921E-16 -4.699995E-17
        18 -8.710877E-17  5.701922E-17 -1.697180E-16
        19  9.320503E-18 -3.590789E-17 -8.477794E-17
        20 -4.391594E-17  8.076522E-17  2.096875E-17
        21 -9.281855E-16  3.169455E-16 -2.380454E-15
        22 -4.477036E-18 -2.595972E-17 -7.781528E-16
        23 -2.778730E-16  6.208134E-17 -3.381893E-16
        24 -1.444010E-17 -3.660872E-17 -3.297494E-16
        25 -7.856129E-16  3.012427E-16 -1.360402E-15
        26 -1.465261E-16  9.625902E-17 -1.416528E-15
        27 -1.207535E-17 -9.939755E-17 -6.419449E-16
        28 -6.071929E-16  2.918379E-16 -8.262128E-16
        29  1.404976E-17 -5.172456E-17 -6.457106E-16
        30 -2.909976E-16  1.420266E-16 -2.952062E-16
        31 -9.863122E-17  3.391625E-17 -3.483411E-16
        32 -2.483840E-19 -4.237396E-17 -2.521431E-16
        33  0.000000E+00  0.000000E+00  0.000000E+00
        34  0.000000E+00  0.000000E+00  0.000000E+00
        35  0.000000E+00  0.000000E+00  0.000000E+00
        36  0.000000E+00  0.000000E+00  0.000000E+00
        37 -6.286536E-17  9.441231E-17 -2.400431E-18
        38 -9.630822E-17  1.028682E-16 -9.263236E-17
        39 -1.512486E-18 -1.435459E-17 -5.711740E-17
        40  1.408803E-17 -7.595207E-18  4.231035E-17
        41  0.000000E+00  0.000000E+00  0.000000E+00
        42  0.000000E+00  0.000000E+00  0.000000E+00
        43  0.000000E+00  0.000000E+00  0.000000E+00
        44  0.000000E+00  0.000000E+00  0.000000E+00
        45  0.000000E+00  0.000000E+00  0.000000E+00
        46  0.000000E+00  0.000000E+00  0.000000E+00
        47 -1.348831E-16  3.026894E-18 -1.360205E-16
        48 -1.473501E-17 -1.748918E-17 -1.317381E-16
        49  0.000000E+00  0.000000E+00  0.000000E+00
        50  0.000000E+00  0.000000E+00  0.000000E+00
        51  0.000000E+00  0.000000E+00  0.000000E+00
        52  1.697094E-16 -3.251377E-16 -3.982004E-16
        53  1.654693E-16 -3.397897E-16 -7.933148E-17
        54  1.469371E-16 -2.005608E-16 -1.869210E-16
        55  1.521114E-16 -2.190994E-16 -4.646358E-18
        56  7.981613E-17 -2.073564E-16 -4.168939E-16
        57  1.584349E-16 -3.275184E-16 -2.368489E-16
        58  1.129105E-16 -2.004314E-16 -1.172000E-16
        59  1.686820E-16 -2.956522E-16 -3.010111E-16
        60  1.714787E-16 -2.921291E-16 -3.893588E-17
        61  6.021520E-17 -1.204617E-16 -1.727748E-16
        62  1.173634E-16 -2.094110E-16 -9.049863E-17
        63  9.922006E-17 -1.316116E-16  1.491688E-17
        64  1.723120E-16 -3.478676E-16 -7.335336E-16
        65  1.432418E-16 -1.764337E-16 -3.563940E-16
        66  4.780840E-17 -1.781863E-16 -7.096148E-16
        67  1.890197E-16 -3.209091E-16 -5.732210E-16
        68  1.616893E-16 -2.745190E-16 -5.586889E-16
        69  2.653094E-17 -1.058374E-16 -3.413171E-16
        70  1.769655E-16 -1.913081E-16 -2.798918E-16
        71  0.000000E+00  0.000000E+00  0.000000E+00
        72  0.000000E+00  0.000000E+00  0.000000E+00
        73  8.098504E-17 -1.028421E-16 -8.422817E-17
        74  8.864389E-17 -1.223782E-16  2.150455E-18
        75  0.000000E+00  0.000000E+00  0.000000E+00
        76  0.000000E+00  0.000000E+00  0.000000E+00
        77  0.000000E+00  0.000000E+00  0.000000E+00
        78  0.000000E+00  0.000000E+00  0.000000E+00
        79  7.715620E-17 -6.163800E-17 -1.457731E-16
        80  0.000000E+00  0.000000E+00  0.000000E+00
        81  0.000000E+00  0.000000E+00  0.000000E+00
        82 -5.879628E-16 -6.996877E-16  5.000000E-02
        83 -1.778092E-17 -3.827494E-16  5.000000E-02
        84 -5.522926E-16 -1.228569E-16  2.500000E-02
        85 -1.468010E-16 -3.580285E-16  5.000000E-02
        86  2.315856E-16 -9.639913E-17  2.500000E-02
        87  8.887205E-16 -9.531977E-16  1.000000E-01
        88 -9.567542E-16  1.590130E-16  1.000000E-01
        89  3.532331E-16 -7.300696E-16  7.500000E-02
        90  3.729655E-17 -4.559234E-16  1.000000E-01
        91 -4.876741E-16 -6.345927E-16  7.500000E-02
        92 -9.896597E-16 -4.933620E-16  5.000000E-02
        93 -1.046689E-15 -2.810681E-16  2.500000E-02
        94 -6.188626E-16 -6.738409E-16  5.000000E-02
        95 -6.234705E-16 -1.260018E-15  1.000000E-01
        96 -7.660973E-16 -9.368049E-16  7.500000E-02
        97 -1.062518E-17 -1.100266E-15  1.000000E-01
