    1C
    1UModel: 2 beams    Date: 10-Sept-2004                              
    1UUSER                                                              
    1UDATE              04.march.2015                                   
    1UTIME              20:07:43                                        
    1UHOST                                                              
    1UPGM               CalculiX                                        
    1UDIR                                                               
    1UDBN                                                               
    1UMAT    1EL                                                        
    2C                           522                                     1
 -1         1 1.00000E+00 1.00000E+00 0.00000E+00
 -1         2 1.00000E+00 5.00000E-01 0.00000E+00
 -1         3 1.00000E+00 5.00000E-01 1.00000E+00
 -1         4 1.00000E+00 1.00000E+00 1.00000E+00
 -1         5 5.00000E-01 1.00000E+00 0.00000E+00
 -1         6 5.00000E-01 5.00000E-01 0.00000E+00
 -1         7 5.00000E-01 5.00000E-01 1.00000E+00
 -1         8 5.00000E-01 1.00000E+00 1.00000E+00
 -1         9 1.00000E+00 7.50000E-01 0.00000E+00
 -1        10 1.00000E+00 5.00000E-01 5.00000E-01
 -1        11 1.00000E+00 7.50000E-01 1.00000E+00
 -1        12 1.00000E+00 1.00000E+00 5.00000E-01
 -1        13 7.50000E-01 1.00000E+00 0.00000E+00
 -1        14 7.50000E-01 5.00000E-01 0.00000E+00
 -1        15 7.50000E-01 5.00000E-01 1.00000E+00
 -1        16 7.50000E-01 1.00000E+00 1.00000E+00
 -1        17 5.00000E-01 7.50000E-01 0.00000E+00
 -1        18 5.00000E-01 5.00000E-01 5.00000E-01
 -1        19 5.00000E-01 7.50000E-01 1.00000E+00
 -1        20 5.00000E-01 1.00000E+00 5.00000E-01
 -1        21 1.00000E+00 0.00000E+00 0.00000E+00
 -1        22 1.00000E+00 0.00000E+00 1.00000E+00
 -1        23 5.00000E-01 0.00000E+00 0.00000E+00
 -1        24 5.00000E-01 0.00000E+00 1.00000E+00
 -1        25 1.00000E+00 2.50000E-01 0.00000E+00
 -1        26 1.00000E+00 0.00000E+00 5.00000E-01
 -1        27 1.00000E+00 2.50000E-01 1.00000E+00
 -1        28 7.50000E-01 0.00000E+00 0.00000E+00
 -1        29 7.50000E-01 0.00000E+00 1.00000E+00
 -1        30 5.00000E-01 2.50000E-01 0.00000E+00
 -1        31 5.00000E-01 0.00000E+00 5.00000E-01
 -1        32 5.00000E-01 2.50000E-01 1.00000E+00
 -1        33 0.00000E+00 1.00000E+00 0.00000E+00
 -1        34 0.00000E+00 5.00000E-01 0.00000E+00
 -1        35 0.00000E+00 5.00000E-01 1.00000E+00
 -1        36 0.00000E+00 1.00000E+00 1.00000E+00
 -1        37 2.50000E-01 1.00000E+00 0.00000E+00
 -1        38 2.50000E-01 5.00000E-01 0.00000E+00
 -1        39 2.50000E-01 5.00000E-01 1.00000E+00
 -1        40 2.50000E-01 1.00000E+00 1.00000E+00
 -1        41 0.00000E+00 7.50000E-01 0.00000E+00
 -1        42 0.00000E+00 5.00000E-01 5.00000E-01
 -1        43 0.00000E+00 7.50000E-01 1.00000E+00
 -1        44 0.00000E+00 1.00000E+00 5.00000E-01
 -1        45 0.00000E+00 0.00000E+00 0.00000E+00
 -1        46 0.00000E+00 0.00000E+00 1.00000E+00
 -1        47 2.50000E-01 0.00000E+00 0.00000E+00
 -1        48 2.50000E-01 0.00000E+00 1.00000E+00
 -1        49 0.00000E+00 2.50000E-01 0.00000E+00
 -1        50 0.00000E+00 0.00000E+00 5.00000E-01
 -1        51 0.00000E+00 2.50000E-01 1.00000E+00
 -1        52 1.00000E+00 5.00000E-01 2.00000E+00
 -1        53 1.00000E+00 1.00000E+00 2.00000E+00
 -1        54 5.00000E-01 5.00000E-01 2.00000E+00
 -1        55 5.00000E-01 1.00000E+00 2.00000E+00
 -1        56 1.00000E+00 5.00000E-01 1.50000E+00
 -1        57 1.00000E+00 7.50000E-01 2.00000E+00
 -1        58 1.00000E+00 1.00000E+00 1.50000E+00
 -1        59 7.50000E-01 5.00000E-01 2.00000E+00
 -1        60 7.50000E-01 1.00000E+00 2.00000E+00
 -1        61 5.00000E-01 5.00000E-01 1.50000E+00
 -1        62 5.00000E-01 7.50000E-01 2.00000E+00
 -1        63 5.00000E-01 1.00000E+00 1.50000E+00
 -1        64 1.00000E+00 0.00000E+00 2.00000E+00
 -1        65 5.00000E-01 0.00000E+00 2.00000E+00
 -1        66 1.00000E+00 0.00000E+00 1.50000E+00
 -1        67 1.00000E+00 2.50000E-01 2.00000E+00
 -1        68 7.50000E-01 0.00000E+00 2.00000E+00
 -1        69 5.00000E-01 0.00000E+00 1.50000E+00
 -1        70 5.00000E-01 2.50000E-01 2.00000E+00
 -1        71 0.00000E+00 5.00000E-01 2.00000E+00
 -1        72 0.00000E+00 1.00000E+00 2.00000E+00
 -1        73 2.50000E-01 5.00000E-01 2.00000E+00
 -1        74 2.50000E-01 1.00000E+00 2.00000E+00
 -1        75 0.00000E+00 5.00000E-01 1.50000E+00
 -1        76 0.00000E+00 7.50000E-01 2.00000E+00
 -1        77 0.00000E+00 1.00000E+00 1.50000E+00
 -1        78 0.00000E+00 0.00000E+00 2.00000E+00
 -1        79 2.50000E-01 0.00000E+00 2.00000E+00
 -1        80 0.00000E+00 0.00000E+00 1.50000E+00
 -1        81 0.00000E+00 2.50000E-01 2.00000E+00
 -1        82 1.00000E+00 5.00000E-01 3.00000E+00
 -1        83 1.00000E+00 1.00000E+00 3.00000E+00
 -1        84 5.00000E-01 5.00000E-01 3.00000E+00
 -1        85 5.00000E-01 1.00000E+00 3.00000E+00
 -1        86 1.00000E+00 5.00000E-01 2.50000E+00
 -1        87 1.00000E+00 7.50000E-01 3.00000E+00
 -1        88 1.00000E+00 1.00000E+00 2.50000E+00
 -1        89 7.50000E-01 5.00000E-01 3.00000E+00
 -1        90 7.50000E-01 1.00000E+00 3.00000E+00
 -1        91 5.00000E-01 5.00000E-01 2.50000E+00
 -1        92 5.00000E-01 7.50000E-01 3.00000E+00
 -1        93 5.00000E-01 1.00000E+00 2.50000E+00
 -1        94 1.00000E+00 0.00000E+00 3.00000E+00
 -1        95 5.00000E-01 0.00000E+00 3.00000E+00
 -1        96 1.00000E+00 0.00000E+00 2.50000E+00
 -1        97 1.00000E+00 2.50000E-01 3.00000E+00
 -1        98 7.50000E-01 0.00000E+00 3.00000E+00
 -1        99 5.00000E-01 0.00000E+00 2.50000E+00
 -1       100 5.00000E-01 2.50000E-01 3.00000E+00
 -1       101 0.00000E+00 5.00000E-01 3.00000E+00
 -1       102 0.00000E+00 1.00000E+00 3.00000E+00
 -1       103 2.50000E-01 5.00000E-01 3.00000E+00
 -1       104 2.50000E-01 1.00000E+00 3.00000E+00
 -1       105 0.00000E+00 5.00000E-01 2.50000E+00
 -1       106 0.00000E+00 7.50000E-01 3.00000E+00
 -1       107 0.00000E+00 1.00000E+00 2.50000E+00
 -1       108 0.00000E+00 0.00000E+00 3.00000E+00
 -1       109 2.50000E-01 0.00000E+00 3.00000E+00
 -1       110 0.00000E+00 0.00000E+00 2.50000E+00
 -1       111 0.00000E+00 2.50000E-01 3.00000E+00
 -1       112 1.00000E+00 5.00000E-01 4.00000E+00
 -1       113 1.00000E+00 1.00000E+00 4.00000E+00
 -1       114 5.00000E-01 5.00000E-01 4.00000E+00
 -1       115 5.00000E-01 1.00000E+00 4.00000E+00
 -1       116 1.00000E+00 5.00000E-01 3.50000E+00
 -1       117 1.00000E+00 7.50000E-01 4.00000E+00
 -1       118 1.00000E+00 1.00000E+00 3.50000E+00
 -1       119 7.50000E-01 5.00000E-01 4.00000E+00
 -1       120 7.50000E-01 1.00000E+00 4.00000E+00
 -1       121 5.00000E-01 5.00000E-01 3.50000E+00
 -1       122 5.00000E-01 7.50000E-01 4.00000E+00
 -1       123 5.00000E-01 1.00000E+00 3.50000E+00
 -1       124 1.00000E+00 0.00000E+00 4.00000E+00
 -1       125 5.00000E-01 0.00000E+00 4.00000E+00
 -1       126 1.00000E+00 0.00000E+00 3.50000E+00
 -1       127 1.00000E+00 2.50000E-01 4.00000E+00
 -1       128 7.50000E-01 0.00000E+00 4.00000E+00
 -1       129 5.00000E-01 0.00000E+00 3.50000E+00
 -1       130 5.00000E-01 2.50000E-01 4.00000E+00
 -1       131 0.00000E+00 5.00000E-01 4.00000E+00
 -1       132 0.00000E+00 1.00000E+00 4.00000E+00
 -1       133 2.50000E-01 5.00000E-01 4.00000E+00
 -1       134 2.50000E-01 1.00000E+00 4.00000E+00
 -1       135 0.00000E+00 5.00000E-01 3.50000E+00
 -1       136 0.00000E+00 7.50000E-01 4.00000E+00
 -1       137 0.00000E+00 1.00000E+00 3.50000E+00
 -1       138 0.00000E+00 0.00000E+00 4.00000E+00
 -1       139 2.50000E-01 0.00000E+00 4.00000E+00
 -1       140 0.00000E+00 0.00000E+00 3.50000E+00
 -1       141 0.00000E+00 2.50000E-01 4.00000E+00
 -1       142 1.00000E+00 5.00000E-01 5.00000E+00
 -1       143 1.00000E+00 1.00000E+00 5.00000E+00
 -1       144 5.00000E-01 5.00000E-01 5.00000E+00
 -1       145 5.00000E-01 1.00000E+00 5.00000E+00
 -1       146 1.00000E+00 5.00000E-01 4.50000E+00
 -1       147 1.00000E+00 7.50000E-01 5.00000E+00
 -1       148 1.00000E+00 1.00000E+00 4.50000E+00
 -1       149 7.50000E-01 5.00000E-01 5.00000E+00
 -1       150 7.50000E-01 1.00000E+00 5.00000E+00
 -1       151 5.00000E-01 5.00000E-01 4.50000E+00
 -1       152 5.00000E-01 7.50000E-01 5.00000E+00
 -1       153 5.00000E-01 1.00000E+00 4.50000E+00
 -1       154 1.00000E+00 0.00000E+00 5.00000E+00
 -1       155 5.00000E-01 0.00000E+00 5.00000E+00
 -1       156 1.00000E+00 0.00000E+00 4.50000E+00
 -1       157 1.00000E+00 2.50000E-01 5.00000E+00
 -1       158 7.50000E-01 0.00000E+00 5.00000E+00
 -1       159 5.00000E-01 0.00000E+00 4.50000E+00
 -1       160 5.00000E-01 2.50000E-01 5.00000E+00
 -1       161 0.00000E+00 5.00000E-01 5.00000E+00
 -1       162 0.00000E+00 1.00000E+00 5.00000E+00
 -1       163 2.50000E-01 5.00000E-01 5.00000E+00
 -1       164 2.50000E-01 1.00000E+00 5.00000E+00
 -1       165 0.00000E+00 5.00000E-01 4.50000E+00
 -1       166 0.00000E+00 7.50000E-01 5.00000E+00
 -1       167 0.00000E+00 1.00000E+00 4.50000E+00
 -1       168 0.00000E+00 0.00000E+00 5.00000E+00
 -1       169 2.50000E-01 0.00000E+00 5.00000E+00
 -1       170 0.00000E+00 0.00000E+00 4.50000E+00
 -1       171 0.00000E+00 2.50000E-01 5.00000E+00
 -1       172 1.00000E+00 5.00000E-01 6.00000E+00
 -1       173 1.00000E+00 1.00000E+00 6.00000E+00
 -1       174 5.00000E-01 5.00000E-01 6.00000E+00
 -1       175 5.00000E-01 1.00000E+00 6.00000E+00
 -1       176 1.00000E+00 5.00000E-01 5.50000E+00
 -1       177 1.00000E+00 7.50000E-01 6.00000E+00
 -1       178 1.00000E+00 1.00000E+00 5.50000E+00
 -1       179 7.50000E-01 5.00000E-01 6.00000E+00
 -1       180 7.50000E-01 1.00000E+00 6.00000E+00
 -1       181 5.00000E-01 5.00000E-01 5.50000E+00
 -1       182 5.00000E-01 7.50000E-01 6.00000E+00
 -1       183 5.00000E-01 1.00000E+00 5.50000E+00
 -1       184 1.00000E+00 0.00000E+00 6.00000E+00
 -1       185 5.00000E-01 0.00000E+00 6.00000E+00
 -1       186 1.00000E+00 0.00000E+00 5.50000E+00
 -1       187 1.00000E+00 2.50000E-01 6.00000E+00
 -1       188 7.50000E-01 0.00000E+00 6.00000E+00
 -1       189 5.00000E-01 0.00000E+00 5.50000E+00
 -1       190 5.00000E-01 2.50000E-01 6.00000E+00
 -1       191 0.00000E+00 5.00000E-01 6.00000E+00
 -1       192 0.00000E+00 1.00000E+00 6.00000E+00
 -1       193 2.50000E-01 5.00000E-01 6.00000E+00
 -1       194 2.50000E-01 1.00000E+00 6.00000E+00
 -1       195 0.00000E+00 5.00000E-01 5.50000E+00
 -1       196 0.00000E+00 7.50000E-01 6.00000E+00
 -1       197 0.00000E+00 1.00000E+00 5.50000E+00
 -1       198 0.00000E+00 0.00000E+00 6.00000E+00
 -1       199 2.50000E-01 0.00000E+00 6.00000E+00
 -1       200 0.00000E+00 0.00000E+00 5.50000E+00
 -1       201 0.00000E+00 2.50000E-01 6.00000E+00
 -1       202 1.00000E+00 5.00000E-01 7.00000E+00
 -1       203 1.00000E+00 1.00000E+00 7.00000E+00
 -1       204 5.00000E-01 5.00000E-01 7.00000E+00
 -1       205 5.00000E-01 1.00000E+00 7.00000E+00
 -1       206 1.00000E+00 5.00000E-01 6.50000E+00
 -1       207 1.00000E+00 7.50000E-01 7.00000E+00
 -1       208 1.00000E+00 1.00000E+00 6.50000E+00
 -1       209 7.50000E-01 5.00000E-01 7.00000E+00
 -1       210 7.50000E-01 1.00000E+00 7.00000E+00
 -1       211 5.00000E-01 5.00000E-01 6.50000E+00
 -1       212 5.00000E-01 7.50000E-01 7.00000E+00
 -1       213 5.00000E-01 1.00000E+00 6.50000E+00
 -1       214 1.00000E+00 0.00000E+00 7.00000E+00
 -1       215 5.00000E-01 0.00000E+00 7.00000E+00
 -1       216 1.00000E+00 0.00000E+00 6.50000E+00
 -1       217 1.00000E+00 2.50000E-01 7.00000E+00
 -1       218 7.50000E-01 0.00000E+00 7.00000E+00
 -1       219 5.00000E-01 0.00000E+00 6.50000E+00
 -1       220 5.00000E-01 2.50000E-01 7.00000E+00
 -1       221 0.00000E+00 5.00000E-01 7.00000E+00
 -1       222 0.00000E+00 1.00000E+00 7.00000E+00
 -1       223 2.50000E-01 5.00000E-01 7.00000E+00
 -1       224 2.50000E-01 1.00000E+00 7.00000E+00
 -1       225 0.00000E+00 5.00000E-01 6.50000E+00
 -1       226 0.00000E+00 7.50000E-01 7.00000E+00
 -1       227 0.00000E+00 1.00000E+00 6.50000E+00
 -1       228 0.00000E+00 0.00000E+00 7.00000E+00
 -1       229 2.50000E-01 0.00000E+00 7.00000E+00
 -1       230 0.00000E+00 0.00000E+00 6.50000E+00
 -1       231 0.00000E+00 2.50000E-01 7.00000E+00
 -1       232 1.00000E+00 5.00000E-01 8.00000E+00
 -1       233 1.00000E+00 1.00000E+00 8.00000E+00
 -1       234 5.00000E-01 5.00000E-01 8.00000E+00
 -1       235 5.00000E-01 1.00000E+00 8.00000E+00
 -1       236 1.00000E+00 5.00000E-01 7.50000E+00
 -1       237 1.00000E+00 7.50000E-01 8.00000E+00
 -1       238 1.00000E+00 1.00000E+00 7.50000E+00
 -1       239 7.50000E-01 5.00000E-01 8.00000E+00
 -1       240 7.50000E-01 1.00000E+00 8.00000E+00
 -1       241 5.00000E-01 5.00000E-01 7.50000E+00
 -1       242 5.00000E-01 7.50000E-01 8.00000E+00
 -1       243 5.00000E-01 1.00000E+00 7.50000E+00
 -1       244 1.00000E+00 0.00000E+00 8.00000E+00
 -1       245 5.00000E-01 0.00000E+00 8.00000E+00
 -1       246 1.00000E+00 0.00000E+00 7.50000E+00
 -1       247 1.00000E+00 2.50000E-01 8.00000E+00
 -1       248 7.50000E-01 0.00000E+00 8.00000E+00
 -1       249 5.00000E-01 0.00000E+00 7.50000E+00
 -1       250 5.00000E-01 2.50000E-01 8.00000E+00
 -1       251 0.00000E+00 5.00000E-01 8.00000E+00
 -1       252 0.00000E+00 1.00000E+00 8.00000E+00
 -1       253 2.50000E-01 5.00000E-01 8.00000E+00
 -1       254 2.50000E-01 1.00000E+00 8.00000E+00
 -1       255 0.00000E+00 5.00000E-01 7.50000E+00
 -1       256 0.00000E+00 7.50000E-01 8.00000E+00
 -1       257 0.00000E+00 1.00000E+00 7.50000E+00
 -1       258 0.00000E+00 0.00000E+00 8.00000E+00
 -1       259 2.50000E-01 0.00000E+00 8.00000E+00
 -1       260 0.00000E+00 0.00000E+00 7.50000E+00
 -1       261 0.00000E+00 2.50000E-01 8.00000E+00
 -1       262 3.00000E+00 1.00000E+00 0.00000E+00
 -1       263 3.00000E+00 5.00000E-01 0.00000E+00
 -1       264 3.00000E+00 5.00000E-01 1.00000E+00
 -1       265 3.00000E+00 1.00000E+00 1.00000E+00
 -1       266 2.50000E+00 1.00000E+00 0.00000E+00
 -1       267 2.50000E+00 5.00000E-01 0.00000E+00
 -1       268 2.50000E+00 5.00000E-01 1.00000E+00
 -1       269 2.50000E+00 1.00000E+00 1.00000E+00
 -1       270 3.00000E+00 7.50000E-01 0.00000E+00
 -1       271 3.00000E+00 5.00000E-01 5.00000E-01
 -1       272 3.00000E+00 7.50000E-01 1.00000E+00
 -1       273 3.00000E+00 1.00000E+00 5.00000E-01
 -1       274 2.75000E+00 1.00000E+00 0.00000E+00
 -1       275 2.75000E+00 5.00000E-01 0.00000E+00
 -1       276 2.75000E+00 5.00000E-01 1.00000E+00
 -1       277 2.75000E+00 1.00000E+00 1.00000E+00
 -1       278 2.50000E+00 7.50000E-01 0.00000E+00
 -1       279 2.50000E+00 5.00000E-01 5.00000E-01
 -1       280 2.50000E+00 7.50000E-01 1.00000E+00
 -1       281 2.50000E+00 1.00000E+00 5.00000E-01
 -1       282 3.00000E+00 0.00000E+00 0.00000E+00
 -1       283 3.00000E+00 0.00000E+00 1.00000E+00
 -1       284 2.50000E+00 0.00000E+00 0.00000E+00
 -1       285 2.50000E+00 0.00000E+00 1.00000E+00
 -1       286 3.00000E+00 2.50000E-01 0.00000E+00
 -1       287 3.00000E+00 0.00000E+00 5.00000E-01
 -1       288 3.00000E+00 2.50000E-01 1.00000E+00
 -1       289 2.75000E+00 0.00000E+00 0.00000E+00
 -1       290 2.75000E+00 0.00000E+00 1.00000E+00
 -1       291 2.50000E+00 2.50000E-01 0.00000E+00
 -1       292 2.50000E+00 0.00000E+00 5.00000E-01
 -1       293 2.50000E+00 2.50000E-01 1.00000E+00
 -1       294 2.00000E+00 1.00000E+00 0.00000E+00
 -1       295 2.00000E+00 5.00000E-01 0.00000E+00
 -1       296 2.00000E+00 5.00000E-01 1.00000E+00
 -1       297 2.00000E+00 1.00000E+00 1.00000E+00
 -1       298 2.25000E+00 1.00000E+00 0.00000E+00
 -1       299 2.25000E+00 5.00000E-01 0.00000E+00
 -1       300 2.25000E+00 5.00000E-01 1.00000E+00
 -1       301 2.25000E+00 1.00000E+00 1.00000E+00
 -1       302 2.00000E+00 7.50000E-01 0.00000E+00
 -1       303 2.00000E+00 5.00000E-01 5.00000E-01
 -1       304 2.00000E+00 7.50000E-01 1.00000E+00
 -1       305 2.00000E+00 1.00000E+00 5.00000E-01
 -1       306 2.00000E+00 0.00000E+00 0.00000E+00
 -1       307 2.00000E+00 0.00000E+00 1.00000E+00
 -1       308 2.25000E+00 0.00000E+00 0.00000E+00
 -1       309 2.25000E+00 0.00000E+00 1.00000E+00
 -1       310 2.00000E+00 2.50000E-01 0.00000E+00
 -1       311 2.00000E+00 0.00000E+00 5.00000E-01
 -1       312 2.00000E+00 2.50000E-01 1.00000E+00
 -1       313 3.00000E+00 5.00000E-01 2.00000E+00
 -1       314 3.00000E+00 1.00000E+00 2.00000E+00
 -1       315 2.50000E+00 5.00000E-01 2.00000E+00
 -1       316 2.50000E+00 1.00000E+00 2.00000E+00
 -1       317 3.00000E+00 5.00000E-01 1.50000E+00
 -1       318 3.00000E+00 7.50000E-01 2.00000E+00
 -1       319 3.00000E+00 1.00000E+00 1.50000E+00
 -1       320 2.75000E+00 5.00000E-01 2.00000E+00
 -1       321 2.75000E+00 1.00000E+00 2.00000E+00
 -1       322 2.50000E+00 5.00000E-01 1.50000E+00
 -1       323 2.50000E+00 7.50000E-01 2.00000E+00
 -1       324 2.50000E+00 1.00000E+00 1.50000E+00
 -1       325 3.00000E+00 0.00000E+00 2.00000E+00
 -1       326 2.50000E+00 0.00000E+00 2.00000E+00
 -1       327 3.00000E+00 0.00000E+00 1.50000E+00
 -1       328 3.00000E+00 2.50000E-01 2.00000E+00
 -1       329 2.75000E+00 0.00000E+00 2.00000E+00
 -1       330 2.50000E+00 0.00000E+00 1.50000E+00
 -1       331 2.50000E+00 2.50000E-01 2.00000E+00
 -1       332 2.00000E+00 5.00000E-01 2.00000E+00
 -1       333 2.00000E+00 1.00000E+00 2.00000E+00
 -1       334 2.25000E+00 5.00000E-01 2.00000E+00
 -1       335 2.25000E+00 1.00000E+00 2.00000E+00
 -1       336 2.00000E+00 5.00000E-01 1.50000E+00
 -1       337 2.00000E+00 7.50000E-01 2.00000E+00
 -1       338 2.00000E+00 1.00000E+00 1.50000E+00
 -1       339 2.00000E+00 0.00000E+00 2.00000E+00
 -1       340 2.25000E+00 0.00000E+00 2.00000E+00
 -1       341 2.00000E+00 0.00000E+00 1.50000E+00
 -1       342 2.00000E+00 2.50000E-01 2.00000E+00
 -1       343 3.00000E+00 5.00000E-01 3.00000E+00
 -1       344 3.00000E+00 1.00000E+00 3.00000E+00
 -1       345 2.50000E+00 5.00000E-01 3.00000E+00
 -1       346 2.50000E+00 1.00000E+00 3.00000E+00
 -1       347 3.00000E+00 5.00000E-01 2.50000E+00
 -1       348 3.00000E+00 7.50000E-01 3.00000E+00
 -1       349 3.00000E+00 1.00000E+00 2.50000E+00
 -1       350 2.75000E+00 5.00000E-01 3.00000E+00
 -1       351 2.75000E+00 1.00000E+00 3.00000E+00
 -1       352 2.50000E+00 5.00000E-01 2.50000E+00
 -1       353 2.50000E+00 7.50000E-01 3.00000E+00
 -1       354 2.50000E+00 1.00000E+00 2.50000E+00
 -1       355 3.00000E+00 0.00000E+00 3.00000E+00
 -1       356 2.50000E+00 0.00000E+00 3.00000E+00
 -1       357 3.00000E+00 0.00000E+00 2.50000E+00
 -1       358 3.00000E+00 2.50000E-01 3.00000E+00
 -1       359 2.75000E+00 0.00000E+00 3.00000E+00
 -1       360 2.50000E+00 0.00000E+00 2.50000E+00
 -1       361 2.50000E+00 2.50000E-01 3.00000E+00
 -1       362 2.00000E+00 5.00000E-01 3.00000E+00
 -1       363 2.00000E+00 1.00000E+00 3.00000E+00
 -1       364 2.25000E+00 5.00000E-01 3.00000E+00
 -1       365 2.25000E+00 1.00000E+00 3.00000E+00
 -1       366 2.00000E+00 5.00000E-01 2.50000E+00
 -1       367 2.00000E+00 7.50000E-01 3.00000E+00
 -1       368 2.00000E+00 1.00000E+00 2.50000E+00
 -1       369 2.00000E+00 0.00000E+00 3.00000E+00
 -1       370 2.25000E+00 0.00000E+00 3.00000E+00
 -1       371 2.00000E+00 0.00000E+00 2.50000E+00
 -1       372 2.00000E+00 2.50000E-01 3.00000E+00
 -1       373 3.00000E+00 5.00000E-01 4.00000E+00
 -1       374 3.00000E+00 1.00000E+00 4.00000E+00
 -1       375 2.50000E+00 5.00000E-01 4.00000E+00
 -1       376 2.50000E+00 1.00000E+00 4.00000E+00
 -1       377 3.00000E+00 5.00000E-01 3.50000E+00
 -1       378 3.00000E+00 7.50000E-01 4.00000E+00
 -1       379 3.00000E+00 1.00000E+00 3.50000E+00
 -1       380 2.75000E+00 5.00000E-01 4.00000E+00
 -1       381 2.75000E+00 1.00000E+00 4.00000E+00
 -1       382 2.50000E+00 5.00000E-01 3.50000E+00
 -1       383 2.50000E+00 7.50000E-01 4.00000E+00
 -1       384 2.50000E+00 1.00000E+00 3.50000E+00
 -1       385 3.00000E+00 0.00000E+00 4.00000E+00
 -1       386 2.50000E+00 0.00000E+00 4.00000E+00
 -1       387 3.00000E+00 0.00000E+00 3.50000E+00
 -1       388 3.00000E+00 2.50000E-01 4.00000E+00
 -1       389 2.75000E+00 0.00000E+00 4.00000E+00
 -1       390 2.50000E+00 0.00000E+00 3.50000E+00
 -1       391 2.50000E+00 2.50000E-01 4.00000E+00
 -1       392 2.00000E+00 5.00000E-01 4.00000E+00
 -1       393 2.00000E+00 1.00000E+00 4.00000E+00
 -1       394 2.25000E+00 5.00000E-01 4.00000E+00
 -1       395 2.25000E+00 1.00000E+00 4.00000E+00
 -1       396 2.00000E+00 5.00000E-01 3.50000E+00
 -1       397 2.00000E+00 7.50000E-01 4.00000E+00
 -1       398 2.00000E+00 1.00000E+00 3.50000E+00
 -1       399 2.00000E+00 0.00000E+00 4.00000E+00
 -1       400 2.25000E+00 0.00000E+00 4.00000E+00
 -1       401 2.00000E+00 0.00000E+00 3.50000E+00
 -1       402 2.00000E+00 2.50000E-01 4.00000E+00
 -1       403 3.00000E+00 5.00000E-01 5.00000E+00
 -1       404 3.00000E+00 1.00000E+00 5.00000E+00
 -1       405 2.50000E+00 5.00000E-01 5.00000E+00
 -1       406 2.50000E+00 1.00000E+00 5.00000E+00
 -1       407 3.00000E+00 5.00000E-01 4.50000E+00
 -1       408 3.00000E+00 7.50000E-01 5.00000E+00
 -1       409 3.00000E+00 1.00000E+00 4.50000E+00
 -1       410 2.75000E+00 5.00000E-01 5.00000E+00
 -1       411 2.75000E+00 1.00000E+00 5.00000E+00
 -1       412 2.50000E+00 5.00000E-01 4.50000E+00
 -1       413 2.50000E+00 7.50000E-01 5.00000E+00
 -1       414 2.50000E+00 1.00000E+00 4.50000E+00
 -1       415 3.00000E+00 0.00000E+00 5.00000E+00
 -1       416 2.50000E+00 0.00000E+00 5.00000E+00
 -1       417 3.00000E+00 0.00000E+00 4.50000E+00
 -1       418 3.00000E+00 2.50000E-01 5.00000E+00
 -1       419 2.75000E+00 0.00000E+00 5.00000E+00
 -1       420 2.50000E+00 0.00000E+00 4.50000E+00
 -1       421 2.50000E+00 2.50000E-01 5.00000E+00
 -1       422 2.00000E+00 5.00000E-01 5.00000E+00
 -1       423 2.00000E+00 1.00000E+00 5.00000E+00
 -1       424 2.25000E+00 5.00000E-01 5.00000E+00
 -1       425 2.25000E+00 1.00000E+00 5.00000E+00
 -1       426 2.00000E+00 5.00000E-01 4.50000E+00
 -1       427 2.00000E+00 7.50000E-01 5.00000E+00
 -1       428 2.00000E+00 1.00000E+00 4.50000E+00
 -1       429 2.00000E+00 0.00000E+00 5.00000E+00
 -1       430 2.25000E+00 0.00000E+00 5.00000E+00
 -1       431 2.00000E+00 0.00000E+00 4.50000E+00
 -1       432 2.00000E+00 2.50000E-01 5.00000E+00
 -1       433 3.00000E+00 5.00000E-01 6.00000E+00
 -1       434 3.00000E+00 1.00000E+00 6.00000E+00
 -1       435 2.50000E+00 5.00000E-01 6.00000E+00
 -1       436 2.50000E+00 1.00000E+00 6.00000E+00
 -1       437 3.00000E+00 5.00000E-01 5.50000E+00
 -1       438 3.00000E+00 7.50000E-01 6.00000E+00
 -1       439 3.00000E+00 1.00000E+00 5.50000E+00
 -1       440 2.75000E+00 5.00000E-01 6.00000E+00
 -1       441 2.75000E+00 1.00000E+00 6.00000E+00
 -1       442 2.50000E+00 5.00000E-01 5.50000E+00
 -1       443 2.50000E+00 7.50000E-01 6.00000E+00
 -1       444 2.50000E+00 1.00000E+00 5.50000E+00
 -1       445 3.00000E+00 0.00000E+00 6.00000E+00
 -1       446 2.50000E+00 0.00000E+00 6.00000E+00
 -1       447 3.00000E+00 0.00000E+00 5.50000E+00
 -1       448 3.00000E+00 2.50000E-01 6.00000E+00
 -1       449 2.75000E+00 0.00000E+00 6.00000E+00
 -1       450 2.50000E+00 0.00000E+00 5.50000E+00
 -1       451 2.50000E+00 2.50000E-01 6.00000E+00
 -1       452 2.00000E+00 5.00000E-01 6.00000E+00
 -1       453 2.00000E+00 1.00000E+00 6.00000E+00
 -1       454 2.25000E+00 5.00000E-01 6.00000E+00
 -1       455 2.25000E+00 1.00000E+00 6.00000E+00
 -1       456 2.00000E+00 5.00000E-01 5.50000E+00
 -1       457 2.00000E+00 7.50000E-01 6.00000E+00
 -1       458 2.00000E+00 1.00000E+00 5.50000E+00
 -1       459 2.00000E+00 0.00000E+00 6.00000E+00
 -1       460 2.25000E+00 0.00000E+00 6.00000E+00
 -1       461 2.00000E+00 0.00000E+00 5.50000E+00
 -1       462 2.00000E+00 2.50000E-01 6.00000E+00
 -1       463 3.00000E+00 5.00000E-01 7.00000E+00
 -1       464 3.00000E+00 1.00000E+00 7.00000E+00
 -1       465 2.50000E+00 5.00000E-01 7.00000E+00
 -1       466 2.50000E+00 1.00000E+00 7.00000E+00
 -1       467 3.00000E+00 5.00000E-01 6.50000E+00
 -1       468 3.00000E+00 7.50000E-01 7.00000E+00
 -1       469 3.00000E+00 1.00000E+00 6.50000E+00
 -1       470 2.75000E+00 5.00000E-01 7.00000E+00
 -1       471 2.75000E+00 1.00000E+00 7.00000E+00
 -1       472 2.50000E+00 5.00000E-01 6.50000E+00
 -1       473 2.50000E+00 7.50000E-01 7.00000E+00
 -1       474 2.50000E+00 1.00000E+00 6.50000E+00
 -1       475 3.00000E+00 0.00000E+00 7.00000E+00
 -1       476 2.50000E+00 0.00000E+00 7.00000E+00
 -1       477 3.00000E+00 0.00000E+00 6.50000E+00
 -1       478 3.00000E+00 2.50000E-01 7.00000E+00
 -1       479 2.75000E+00 0.00000E+00 7.00000E+00
 -1       480 2.50000E+00 0.00000E+00 6.50000E+00
 -1       481 2.50000E+00 2.50000E-01 7.00000E+00
 -1       482 2.00000E+00 5.00000E-01 7.00000E+00
 -1       483 2.00000E+00 1.00000E+00 7.00000E+00
 -1       484 2.25000E+00 5.00000E-01 7.00000E+00
 -1       485 2.25000E+00 1.00000E+00 7.00000E+00
 -1       486 2.00000E+00 5.00000E-01 6.50000E+00
 -1       487 2.00000E+00 7.50000E-01 7.00000E+00
 -1       488 2.00000E+00 1.00000E+00 6.50000E+00
 -1       489 2.00000E+00 0.00000E+00 7.00000E+00
 -1       490 2.25000E+00 0.00000E+00 7.00000E+00
 -1       491 2.00000E+00 0.00000E+00 6.50000E+00
 -1       492 2.00000E+00 2.50000E-01 7.00000E+00
 -1       493 3.00000E+00 5.00000E-01 8.00000E+00
 -1       494 3.00000E+00 1.00000E+00 8.00000E+00
 -1       495 2.50000E+00 5.00000E-01 8.00000E+00
 -1       496 2.50000E+00 1.00000E+00 8.00000E+00
 -1       497 3.00000E+00 5.00000E-01 7.50000E+00
 -1       498 3.00000E+00 7.50000E-01 8.00000E+00
 -1       499 3.00000E+00 1.00000E+00 7.50000E+00
 -1       500 2.75000E+00 5.00000E-01 8.00000E+00
 -1       501 2.75000E+00 1.00000E+00 8.00000E+00
 -1       502 2.50000E+00 5.00000E-01 7.50000E+00
 -1       503 2.50000E+00 7.50000E-01 8.00000E+00
 -1       504 2.50000E+00 1.00000E+00 7.50000E+00
 -1       505 3.00000E+00 0.00000E+00 8.00000E+00
 -1       506 2.50000E+00 0.00000E+00 8.00000E+00
 -1       507 3.00000E+00 0.00000E+00 7.50000E+00
 -1       508 3.00000E+00 2.50000E-01 8.00000E+00
 -1       509 2.75000E+00 0.00000E+00 8.00000E+00
 -1       510 2.50000E+00 0.00000E+00 7.50000E+00
 -1       511 2.50000E+00 2.50000E-01 8.00000E+00
 -1       512 2.00000E+00 5.00000E-01 8.00000E+00
 -1       513 2.00000E+00 1.00000E+00 8.00000E+00
 -1       514 2.25000E+00 5.00000E-01 8.00000E+00
 -1       515 2.25000E+00 1.00000E+00 8.00000E+00
 -1       516 2.00000E+00 5.00000E-01 7.50000E+00
 -1       517 2.00000E+00 7.50000E-01 8.00000E+00
 -1       518 2.00000E+00 1.00000E+00 7.50000E+00
 -1       519 2.00000E+00 0.00000E+00 8.00000E+00
 -1       520 2.25000E+00 0.00000E+00 8.00000E+00
 -1       521 2.00000E+00 0.00000E+00 7.50000E+00
 -1       522 2.00000E+00 2.50000E-01 8.00000E+00
 -3
    3C                            64                                     1
 -1         1    4    0    1
 -2         1         2         3         4         5         6         7         8         9        10
 -2        11        12        13        14        15        16        17        18        19        20
 -1         2    4    0    1
 -2         2        21        22         3         6        23        24         7        25        26
 -2        27        10        14        28        29        15        30        31        32        18
 -1         3    4    0    1
 -2         5         6         7         8        33        34        35        36        17        18
 -2        19        20        37        38        39        40        41        42        43        44
 -1         4    4    0    1
 -2         6        23        24         7        34        45        46        35        30        31
 -2        32        18        38        47        48        39        49        50        51        42
 -1         5    4    0    1
 -2         4         3        52        53         8         7        54        55        11        56
 -2        57        58        16        15        59        60        19        61        62        63
 -1         6    4    0    1
 -2         3        22        64        52         7        24        65        54        27        66
 -2        67        56        15        29        68        59        32        69        70        61
 -1         7    4    0    1
 -2         8         7        54        55        36        35        71        72        19        61
 -2        62        63        40        39        73        74        43        75        76        77
 -1         8    4    0    1
 -2         7        24        65        54        35        46        78        71        32        69
 -2        70        61        39        48        79        73        51        80        81        75
 -1         9    4    0    1
 -2        53        52        82        83        55        54        84        85        57        86
 -2        87        88        60        59        89        90        62        91        92        93
 -1        10    4    0    1
 -2        52        64        94        82        54        65        95        84        67        96
 -2        97        86        59        68        98        89        70        99       100        91
 -1        11    4    0    1
 -2        55        54        84        85        72        71       101       102        62        91
 -2        92        93        74        73       103       104        76       105       106       107
 -1        12    4    0    1
 -2        54        65        95        84        71        78       108       101        70        99
 -2       100        91        73        79       109       103        81       110       111       105
 -1        13    4    0    1
 -2        83        82       112       113        85        84       114       115        87       116
 -2       117       118        90        89       119       120        92       121       122       123