
 displacements (vx,vy,vz) for set NALL and time  0.1000000E+01

         1  7.487734E-04  0.000000E+00  0.000000E+00
         2  7.487734E-04  1.000000E+00  5.500000E+02
         3  7.487734E-04  0.000000E+00  0.000000E+00
         4  7.487734E-04  4.163548E-01  5.500000E+02
         5  7.487734E-04  0.000000E+00  0.000000E+00
         6  7.487734E-04  6.507945E-01  6.215952E+02
         7  7.487734E-04  0.000000E+00  0.000000E+00
         8  7.487734E-04  8.343095E-01  6.648019E+02
         9  7.487734E-04  0.000000E+00  0.000000E+00
        10  7.487734E-04  9.855146E-01  6.951838E+02
        11  7.487734E-04  0.000000E+00  0.000000E+00
        12  7.487734E-04  3.734358E-01  6.951838E+02
        13  7.487734E-04  0.000000E+00  0.000000E+00
        14  7.487734E-04  7.000000E-01  9.422918E+02
        15  7.487734E-04  0.000000E+00  0.000000E+00

 temperatures for set NALL and time  0.1000000E+01

         1  0.000000E+00
         2  5.500000E+02
         3  0.000000E+00
         4  5.500000E+02
         5  0.000000E+00
         6  6.215952E+02
         7  0.000000E+00
         8  6.648019E+02
         9  0.000000E+00
        10  6.951838E+02
        11  0.000000E+00
        12  6.951838E+02
        13  0.000000E+00
        14  9.422918E+02
        15  0.000000E+00
